! Sonnet Data File
! From: emgraph Version : 16.52
! From Emgraph Data: Qubit_Xmon2_brgDb
! Data File Written: 11/12/2017 20:39:29
!< HDATE 11/12/2017 19:53:02
!< MDATE 11/12/2017 19:53:21
!< PARAMS
!< Lj = 11.0
!< Gap = 6.0
!< Pwid = 2000.0
!< Width = 10.0
!< Bwid = 8.0
!< Dis1 = 350.0
!< END PARAMS
# GHZ S MA R 34.65000
8.74500000 0.996175 126.91 0.086982 36.910 0.086982 36.910 0.996176 126.95
!< P1 F=8.745 Eeff=(5.13665158 -5.6869e-5) Z0=(34.6465639 -9.6007e-5) R=0.0 C=0.0 
!< P2 F=8.745 Eeff=(5.13665158 -5.6869e-5) Z0=(34.6465639 -9.6007e-5) R=0.0 C=0.0 
8.74500200 0.996174 126.91 0.086986 36.910 0.086986 36.910 0.996176 126.95
8.74500400 0.996174 126.91 0.086989 36.910 0.086989 36.910 0.996176 126.95
8.74500600 0.996174 126.91 0.086992 36.910 0.086992 36.910 0.996175 126.95
8.74500800 0.996173 126.91 0.086996 36.909 0.086996 36.909 0.996175 126.95
8.74501000 0.996173 126.91 0.086999 36.909 0.086999 36.909 0.996174 126.95
8.74501200 0.996172 126.91 0.087003 36.909 0.087003 36.909 0.996174 126.95
8.74501400 0.996172 126.91 0.087006 36.909 0.087006 36.909 0.996174 126.95
8.74501600 0.996172 126.91 0.087010 36.908 0.087010 36.908 0.996173 126.95
8.74501800 0.996171 126.91 0.087013 36.908 0.087013 36.908 0.996173 126.95
8.74502000 0.996171 126.91 0.087017 36.908 0.087017 36.908 0.996173 126.95
8.74502200 0.996171 126.91 0.087020 36.908 0.087020 36.908 0.996172 126.95
8.74502400 0.996170 126.91 0.087024 36.907 0.087024 36.907 0.996172 126.95
8.74502600 0.996170 126.91 0.087028 36.907 0.087028 36.907 0.996171 126.95
8.74502800 0.996169 126.91 0.087031 36.907 0.087031 36.907 0.996171 126.95
8.74503000 0.996169 126.91 0.087035 36.907 0.087035 36.907 0.996171 126.95
8.74503200 0.996169 126.91 0.087038 36.906 0.087038 36.906 0.996170 126.95
8.74503400 0.996168 126.91 0.087042 36.906 0.087042 36.906 0.996170 126.95
8.74503600 0.996168 126.90 0.087045 36.906 0.087045 36.906 0.996170 126.95
8.74503800 0.996167 126.90 0.087049 36.905 0.087049 36.905 0.996169 126.95
8.74504000 0.996167 126.90 0.087053 36.905 0.087053 36.905 0.996169 126.95
8.74504200 0.996167 126.90 0.087056 36.905 0.087056 36.905 0.996168 126.95
8.74504400 0.996166 126.90 0.087060 36.905 0.087060 36.905 0.996168 126.95
8.74504600 0.996166 126.90 0.087063 36.904 0.087063 36.904 0.996168 126.95
8.74504800 0.996165 126.90 0.087067 36.904 0.087067 36.904 0.996167 126.95
8.74505000 0.996165 126.90 0.087071 36.904 0.087071 36.904 0.996167 126.95
8.74505200 0.996165 126.90 0.087074 36.904 0.087074 36.904 0.996166 126.95
8.74505400 0.996164 126.90 0.087078 36.903 0.087078 36.903 0.996166 126.95
8.74505600 0.996164 126.90 0.087082 36.903 0.087082 36.903 0.996166 126.95
8.74505800 0.996163 126.90 0.087085 36.903 0.087085 36.903 0.996165 126.95
8.74506000 0.996163 126.90 0.087089 36.903 0.087089 36.903 0.996165 126.95
8.74506200 0.996163 126.90 0.087093 36.902 0.087093 36.902 0.996164 126.94
8.74506400 0.996162 126.90 0.087096 36.902 0.087096 36.902 0.996164 126.94
8.74506600 0.996162 126.90 0.087100 36.902 0.087100 36.902 0.996164 126.94
8.74506800 0.996161 126.90 0.087104 36.901 0.087104 36.901 0.996163 126.94
8.74507000 0.996161 126.90 0.087108 36.901 0.087108 36.901 0.996163 126.94
8.74507200 0.996161 126.90 0.087111 36.901 0.087111 36.901 0.996162 126.94
8.74507400 0.996160 126.90 0.087115 36.901 0.087115 36.901 0.996162 126.94
8.74507600 0.996160 126.90 0.087119 36.900 0.087119 36.900 0.996162 126.94
8.74507800 0.996159 126.90 0.087123 36.900 0.087123 36.900 0.996161 126.94
8.74508000 0.996159 126.90 0.087126 36.900 0.087126 36.900 0.996161 126.94
8.74508200 0.996159 126.90 0.087130 36.899 0.087130 36.899 0.996160 126.94
8.74508400 0.996158 126.90 0.087134 36.899 0.087134 36.899 0.996160 126.94
8.74508600 0.996158 126.90 0.087138 36.899 0.087138 36.899 0.996160 126.94
8.74508800 0.996157 126.90 0.087141 36.899 0.087141 36.899 0.996159 126.94
8.74509000 0.996157 126.90 0.087145 36.898 0.087145 36.898 0.996159 126.94
8.74509200 0.996157 126.90 0.087149 36.898 0.087149 36.898 0.996158 126.94
8.74509400 0.996156 126.90 0.087153 36.898 0.087153 36.898 0.996158 126.94
8.74509600 0.996156 126.90 0.087157 36.898 0.087157 36.898 0.996157 126.94
8.74509800 0.996155 126.90 0.087161 36.897 0.087161 36.897 0.996157 126.94
8.74510000 0.996155 126.90 0.087164 36.897 0.087164 36.897 0.996157 126.94
8.74510200 0.996154 126.90 0.087168 36.897 0.087168 36.897 0.996156 126.94
8.74510400 0.996154 126.90 0.087172 36.896 0.087172 36.896 0.996156 126.94
8.74510600 0.996154 126.90 0.087176 36.896 0.087176 36.896 0.996155 126.94
8.74510800 0.996153 126.90 0.087180 36.896 0.087180 36.896 0.996155 126.94
8.74511000 0.996153 126.90 0.087184 36.896 0.087184 36.896 0.996155 126.94
8.74511200 0.996152 126.90 0.087188 36.895 0.087188 36.895 0.996154 126.94
8.74511400 0.996152 126.90 0.087192 36.895 0.087192 36.895 0.996154 126.94
8.74511600 0.996151 126.90 0.087196 36.895 0.087196 36.895 0.996153 126.94
8.74511800 0.996151 126.90 0.087200 36.894 0.087200 36.894 0.996153 126.94
8.74512000 0.996151 126.90 0.087203 36.894 0.087203 36.894 0.996152 126.94
8.74512200 0.996150 126.89 0.087207 36.894 0.087207 36.894 0.996152 126.94
8.74512400 0.996150 126.89 0.087211 36.893 0.087211 36.893 0.996152 126.94
8.74512600 0.996149 126.89 0.087215 36.893 0.087215 36.893 0.996151 126.94
8.74512800 0.996149 126.89 0.087219 36.893 0.087219 36.893 0.996151 126.94
8.74513000 0.996148 126.89 0.087223 36.893 0.087223 36.893 0.996150 126.94
8.74513200 0.996148 126.89 0.087227 36.892 0.087227 36.892 0.996150 126.94
8.74513400 0.996148 126.89 0.087231 36.892 0.087231 36.892 0.996149 126.94
8.74513600 0.996147 126.89 0.087235 36.892 0.087235 36.892 0.996149 126.94
8.74513800 0.996147 126.89 0.087239 36.891 0.087239 36.891 0.996149 126.94
8.74514000 0.996146 126.89 0.087243 36.891 0.087243 36.891 0.996148 126.94
8.74514200 0.996146 126.89 0.087247 36.891 0.087247 36.891 0.996148 126.94
8.74514400 0.996145 126.89 0.087251 36.890 0.087251 36.890 0.996147 126.94
8.74514600 0.996145 126.89 0.087256 36.890 0.087256 36.890 0.996147 126.94
8.74514800 0.996144 126.89 0.087260 36.890 0.087260 36.890 0.996146 126.94
8.74515000 0.996144 126.89 0.087264 36.890 0.087264 36.890 0.996146 126.93
8.74515200 0.996143 126.89 0.087268 36.889 0.087268 36.889 0.996145 126.93
8.74515400 0.996143 126.89 0.087272 36.889 0.087272 36.889 0.996145 126.93
8.74515600 0.996143 126.89 0.087276 36.889 0.087276 36.889 0.996145 126.93
8.74515800 0.996142 126.89 0.087280 36.888 0.087280 36.888 0.996144 126.93
8.74516000 0.996142 126.89 0.087284 36.888 0.087284 36.888 0.996144 126.93
8.74516200 0.996141 126.89 0.087288 36.888 0.087288 36.888 0.996143 126.93
8.74516400 0.996141 126.89 0.087293 36.887 0.087293 36.887 0.996143 126.93
8.74516600 0.996140 126.89 0.087297 36.887 0.087297 36.887 0.996142 126.93
8.74516800 0.996140 126.89 0.087301 36.887 0.087301 36.887 0.996142 126.93
8.74517000 0.996139 126.89 0.087305 36.886 0.087305 36.886 0.996141 126.93
8.74517200 0.996139 126.89 0.087309 36.886 0.087309 36.886 0.996141 126.93
8.74517400 0.996138 126.89 0.087313 36.886 0.087313 36.886 0.996140 126.93
8.74517600 0.996138 126.89 0.087318 36.886 0.087318 36.886 0.996140 126.93
8.74517800 0.996138 126.89 0.087322 36.885 0.087322 36.885 0.996140 126.93
8.74518000 0.996137 126.89 0.087326 36.885 0.087326 36.885 0.996139 126.93
8.74518200 0.996137 126.89 0.087330 36.885 0.087330 36.885 0.996139 126.93
8.74518400 0.996136 126.89 0.087335 36.884 0.087335 36.884 0.996138 126.93
8.74518600 0.996136 126.89 0.087339 36.884 0.087339 36.884 0.996138 126.93
8.74518800 0.996135 126.89 0.087343 36.884 0.087343 36.884 0.996137 126.93
8.74519000 0.996135 126.89 0.087347 36.883 0.087347 36.883 0.996137 126.93
8.74519200 0.996134 126.89 0.087352 36.883 0.087352 36.883 0.996136 126.93
8.74519400 0.996134 126.89 0.087356 36.883 0.087356 36.883 0.996136 126.93
8.74519600 0.996133 126.89 0.087360 36.882 0.087360 36.882 0.996135 126.93
8.74519800 0.996133 126.89 0.087365 36.882 0.087365 36.882 0.996135 126.93
8.74520000 0.996132 126.88 0.087369 36.882 0.087369 36.882 0.996134 126.93
8.74520200 0.996132 126.88 0.087373 36.881 0.087373 36.881 0.996134 126.93
8.74520400 0.996131 126.88 0.087378 36.881 0.087378 36.881 0.996133 126.93
8.74520600 0.996131 126.88 0.087382 36.881 0.087382 36.881 0.996133 126.93
8.74520800 0.996130 126.88 0.087386 36.880 0.087386 36.880 0.996132 126.93
8.74521000 0.996130 126.88 0.087391 36.880 0.087391 36.880 0.996132 126.93
8.74521200 0.996129 126.88 0.087395 36.880 0.087395 36.880 0.996131 126.93
8.74521400 0.996129 126.88 0.087400 36.879 0.087400 36.879 0.996131 126.93
8.74521600 0.996128 126.88 0.087404 36.879 0.087404 36.879 0.996130 126.93
8.74521800 0.996128 126.88 0.087408 36.879 0.087408 36.879 0.996130 126.93
8.74522000 0.996127 126.88 0.087413 36.878 0.087413 36.878 0.996130 126.93
8.74522200 0.996127 126.88 0.087417 36.878 0.087417 36.878 0.996129 126.93
8.74522400 0.996126 126.88 0.087422 36.878 0.087422 36.878 0.996129 126.93
8.74522600 0.996126 126.88 0.087426 36.877 0.087426 36.877 0.996128 126.93
8.74522800 0.996125 126.88 0.087431 36.877 0.087431 36.877 0.996128 126.92
8.74523000 0.996125 126.88 0.087435 36.877 0.087435 36.877 0.996127 126.92
8.74523200 0.996124 126.88 0.087440 36.876 0.087440 36.876 0.996127 126.92
8.74523400 0.996124 126.88 0.087444 36.876 0.087444 36.876 0.996126 126.92
8.74523600 0.996123 126.88 0.087449 36.876 0.087449 36.876 0.996126 126.92
8.74523800 0.996123 126.88 0.087453 36.875 0.087453 36.875 0.996125 126.92
8.74524000 0.996122 126.88 0.087458 36.875 0.087458 36.875 0.996125 126.92
8.74524200 0.996122 126.88 0.087463 36.875 0.087463 36.875 0.996124 126.92
8.74524400 0.996121 126.88 0.087467 36.874 0.087467 36.874 0.996124 126.92
8.74524600 0.996121 126.88 0.087472 36.874 0.087472 36.874 0.996123 126.92
8.74524800 0.996120 126.88 0.087476 36.874 0.087476 36.874 0.996123 126.92
8.74525000 0.996120 126.88 0.087481 36.873 0.087481 36.873 0.996122 126.92
8.74525200 0.996119 126.88 0.087486 36.873 0.087486 36.873 0.996121 126.92
8.74525400 0.996119 126.88 0.087490 36.873 0.087490 36.873 0.996121 126.92
8.74525600 0.996118 126.88 0.087495 36.872 0.087495 36.872 0.996120 126.92
8.74525800 0.996118 126.88 0.087499 36.872 0.087499 36.872 0.996120 126.92
8.74526000 0.996117 126.88 0.087504 36.872 0.087504 36.872 0.996119 126.92
8.74526200 0.996117 126.88 0.087509 36.871 0.087509 36.871 0.996119 126.92
8.74526400 0.996116 126.88 0.087513 36.871 0.087513 36.871 0.996118 126.92
8.74526600 0.996116 126.88 0.087518 36.871 0.087518 36.871 0.996118 126.92
8.74526800 0.996115 126.88 0.087523 36.870 0.087523 36.870 0.996117 126.92
8.74527000 0.996115 126.88 0.087528 36.870 0.087528 36.870 0.996117 126.92
8.74527200 0.996114 126.87 0.087532 36.869 0.087532 36.869 0.996116 126.92
8.74527400 0.996114 126.87 0.087537 36.869 0.087537 36.869 0.996116 126.92
8.74527600 0.996113 126.87 0.087542 36.869 0.087542 36.869 0.996115 126.92
8.74527800 0.996112 126.87 0.087547 36.868 0.087547 36.868 0.996115 126.92
8.74528000 0.996112 126.87 0.087551 36.868 0.087551 36.868 0.996114 126.92
8.74528200 0.996111 126.87 0.087556 36.868 0.087556 36.868 0.996114 126.92
8.74528400 0.996111 126.87 0.087561 36.867 0.087561 36.867 0.996113 126.92
8.74528600 0.996110 126.87 0.087566 36.867 0.087566 36.867 0.996113 126.92
8.74528800 0.996110 126.87 0.087571 36.867 0.087571 36.867 0.996112 126.92
8.74529000 0.996109 126.87 0.087576 36.866 0.087576 36.866 0.996111 126.92
8.74529200 0.996109 126.87 0.087580 36.866 0.087580 36.866 0.996111 126.92
8.74529400 0.996108 126.87 0.087585 36.865 0.087585 36.865 0.996110 126.92
8.74529600 0.996108 126.87 0.087590 36.865 0.087590 36.865 0.996110 126.92
8.74529800 0.996107 126.87 0.087595 36.865 0.087595 36.865 0.996109 126.92
8.74530000 0.996106 126.87 0.087600 36.864 0.087600 36.864 0.996109 126.92
8.74530200 0.996106 126.87 0.087605 36.864 0.087605 36.864 0.996108 126.91
8.74530400 0.996105 126.87 0.087610 36.864 0.087610 36.864 0.996108 126.91
8.74530600 0.996105 126.87 0.087615 36.863 0.087615 36.863 0.996107 126.91
8.74530800 0.996104 126.87 0.087620 36.863 0.087620 36.863 0.996107 126.91
8.74531000 0.996104 126.87 0.087625 36.863 0.087625 36.863 0.996106 126.91
8.74531200 0.996103 126.87 0.087630 36.862 0.087630 36.862 0.996105 126.91
8.74531400 0.996102 126.87 0.087635 36.862 0.087635 36.862 0.996105 126.91
8.74531600 0.996102 126.87 0.087640 36.861 0.087640 36.861 0.996104 126.91
8.74531800 0.996101 126.87 0.087645 36.861 0.087645 36.861 0.996104 126.91
8.74532000 0.996101 126.87 0.087650 36.861 0.087650 36.861 0.996103 126.91
8.74532200 0.996100 126.87 0.087655 36.860 0.087655 36.860 0.996103 126.91
8.74532400 0.996100 126.87 0.087660 36.860 0.087660 36.860 0.996102 126.91
8.74532600 0.996099 126.87 0.087665 36.859 0.087665 36.859 0.996101 126.91
8.74532800 0.996098 126.87 0.087670 36.859 0.087670 36.859 0.996101 126.91
8.74533000 0.996098 126.87 0.087675 36.859 0.087675 36.859 0.996100 126.91
8.74533200 0.996097 126.87 0.087680 36.858 0.087680 36.858 0.996100 126.91
8.74533400 0.996097 126.87 0.087686 36.858 0.087686 36.858 0.996099 126.91
8.74533600 0.996096 126.87 0.087691 36.858 0.087691 36.858 0.996099 126.91
8.74533800 0.996096 126.86 0.087696 36.857 0.087696 36.857 0.996098 126.91
8.74534000 0.996095 126.86 0.087701 36.857 0.087701 36.857 0.996097 126.91
8.74534200 0.996094 126.86 0.087706 36.856 0.087706 36.856 0.996097 126.91
8.74534400 0.996094 126.86 0.087711 36.856 0.087711 36.856 0.996096 126.91
8.74534600 0.996093 126.86 0.087717 36.856 0.087717 36.856 0.996096 126.91
8.74534800 0.996093 126.86 0.087722 36.855 0.087722 36.855 0.996095 126.91
8.74535000 0.996092 126.86 0.087727 36.855 0.087727 36.855 0.996095 126.91
8.74535200 0.996091 126.86 0.087732 36.854 0.087732 36.854 0.996094 126.91
8.74535400 0.996091 126.86 0.087738 36.854 0.087738 36.854 0.996093 126.91
8.74535600 0.996090 126.86 0.087743 36.854 0.087743 36.854 0.996093 126.91
8.74535800 0.996090 126.86 0.087748 36.853 0.087748 36.853 0.996092 126.91
8.74536000 0.996089 126.86 0.087754 36.853 0.087754 36.853 0.996092 126.91
8.74536200 0.996088 126.86 0.087759 36.852 0.087759 36.852 0.996091 126.91
8.74536400 0.996088 126.86 0.087764 36.852 0.087764 36.852 0.996090 126.91
8.74536600 0.996087 126.86 0.087770 36.852 0.087770 36.852 0.996090 126.91
8.74536800 0.996087 126.86 0.087775 36.851 0.087775 36.851 0.996089 126.90
8.74537000 0.996086 126.86 0.087780 36.851 0.087780 36.851 0.996088 126.90
8.74537200 0.996085 126.86 0.087786 36.850 0.087786 36.850 0.996088 126.90
8.74537400 0.996085 126.86 0.087791 36.850 0.087791 36.850 0.996087 126.90
8.74537600 0.996084 126.86 0.087797 36.850 0.087797 36.850 0.996087 126.90
8.74537800 0.996083 126.86 0.087802 36.849 0.087802 36.849 0.996086 126.90
8.74538000 0.996083 126.86 0.087808 36.849 0.087808 36.849 0.996085 126.90
8.74538200 0.996082 126.86 0.087813 36.848 0.087813 36.848 0.996085 126.90
8.74538400 0.996082 126.86 0.087819 36.848 0.087819 36.848 0.996084 126.90
8.74538600 0.996081 126.86 0.087824 36.847 0.087824 36.847 0.996084 126.90
8.74538800 0.996080 126.86 0.087830 36.847 0.087830 36.847 0.996083 126.90
8.74539000 0.996080 126.86 0.087835 36.847 0.087835 36.847 0.996082 126.90
8.74539200 0.996079 126.86 0.087841 36.846 0.087841 36.846 0.996082 126.90
8.74539400 0.996078 126.86 0.087846 36.846 0.087846 36.846 0.996081 126.90
8.74539600 0.996078 126.86 0.087852 36.845 0.087852 36.845 0.996080 126.90
8.74539800 0.996077 126.85 0.087858 36.845 0.087858 36.845 0.996080 126.90
8.74540000 0.996076 126.85 0.087863 36.844 0.087863 36.844 0.996079 126.90
8.74540200 0.996076 126.85 0.087869 36.844 0.087869 36.844 0.996078 126.90
8.74540400 0.996075 126.85 0.087874 36.844 0.087874 36.844 0.996078 126.90
8.74540600 0.996075 126.85 0.087880 36.843 0.087880 36.843 0.996077 126.90
8.74540800 0.996074 126.85 0.087886 36.843 0.087886 36.843 0.996077 126.90
8.74541000 0.996073 126.85 0.087891 36.842 0.087891 36.842 0.996076 126.90
8.74541200 0.996073 126.85 0.087897 36.842 0.087897 36.842 0.996075 126.90
8.74541400 0.996072 126.85 0.087903 36.841 0.087903 36.841 0.996075 126.90
8.74541600 0.996071 126.85 0.087909 36.841 0.087909 36.841 0.996074 126.90
8.74541800 0.996071 126.85 0.087914 36.841 0.087914 36.841 0.996073 126.90
8.74542000 0.996070 126.85 0.087920 36.840 0.087920 36.840 0.996073 126.90
8.74542200 0.996069 126.85 0.087926 36.840 0.087926 36.840 0.996072 126.90
8.74542400 0.996069 126.85 0.087932 36.839 0.087932 36.839 0.996071 126.90
8.74542600 0.996068 126.85 0.087938 36.839 0.087938 36.839 0.996071 126.90
8.74542800 0.996067 126.85 0.087944 36.838 0.087944 36.838 0.996070 126.90
8.74543000 0.996067 126.85 0.087949 36.838 0.087949 36.838 0.996069 126.89
8.74543200 0.996066 126.85 0.087955 36.837 0.087955 36.837 0.996069 126.89
8.74543400 0.996065 126.85 0.087961 36.837 0.087961 36.837 0.996068 126.89
8.74543600 0.996064 126.85 0.087967 36.837 0.087967 36.837 0.996067 126.89
8.74543800 0.996064 126.85 0.087973 36.836 0.087973 36.836 0.996067 126.89
8.74544000 0.996063 126.85 0.087979 36.836 0.087979 36.836 0.996066 126.89
8.74544200 0.996062 126.85 0.087985 36.835 0.087985 36.835 0.996065 126.89
8.74544400 0.996062 126.85 0.087991 36.835 0.087991 36.835 0.996065 126.89
8.74544600 0.996061 126.85 0.087997 36.834 0.087997 36.834 0.996064 126.89
8.74544800 0.996060 126.85 0.088003 36.834 0.088003 36.834 0.996063 126.89
8.74545000 0.996060 126.85 0.088009 36.833 0.088009 36.833 0.996063 126.89
8.74545200 0.996059 126.85 0.088015 36.833 0.088015 36.833 0.996062 126.89
8.74545400 0.996058 126.85 0.088021 36.832 0.088021 36.832 0.996061 126.89
8.74545600 0.996058 126.84 0.088027 36.832 0.088027 36.832 0.996060 126.89
8.74545800 0.996057 126.84 0.088033 36.832 0.088033 36.832 0.996060 126.89
8.74546000 0.996056 126.84 0.088039 36.831 0.088039 36.831 0.996059 126.89
8.74546200 0.996055 126.84 0.088045 36.831 0.088045 36.831 0.996058 126.89
8.74546400 0.996055 126.84 0.088052 36.830 0.088052 36.830 0.996058 126.89
8.74546600 0.996054 126.84 0.088058 36.830 0.088058 36.830 0.996057 126.89
8.74546800 0.996053 126.84 0.088064 36.829 0.088064 36.829 0.996056 126.89
8.74547000 0.996053 126.84 0.088070 36.829 0.088070 36.829 0.996055 126.89
8.74547200 0.996052 126.84 0.088076 36.828 0.088076 36.828 0.996055 126.89
8.74547400 0.996051 126.84 0.088083 36.828 0.088083 36.828 0.996054 126.89
8.74547600 0.996050 126.84 0.088089 36.827 0.088089 36.827 0.996053 126.89
8.74547800 0.996050 126.84 0.088095 36.827 0.088095 36.827 0.996053 126.89
8.74548000 0.996049 126.84 0.088102 36.826 0.088102 36.826 0.996052 126.89
8.74548200 0.996048 126.84 0.088108 36.826 0.088108 36.826 0.996051 126.89
8.74548400 0.996047 126.84 0.088114 36.825 0.088114 36.825 0.996050 126.89
8.74548600 0.996047 126.84 0.088121 36.825 0.088121 36.825 0.996050 126.88
8.74548800 0.996046 126.84 0.088127 36.824 0.088127 36.824 0.996049 126.88
8.74549000 0.996045 126.84 0.088133 36.824 0.088133 36.824 0.996048 126.88
8.74549200 0.996044 126.84 0.088140 36.823 0.088140 36.823 0.996047 126.88
8.74549400 0.996044 126.84 0.088146 36.823 0.088146 36.823 0.996047 126.88
8.74549600 0.996043 126.84 0.088153 36.822 0.088153 36.822 0.996046 126.88
8.74549800 0.996042 126.84 0.088159 36.822 0.088159 36.822 0.996045 126.88
8.74550000 0.996041 126.84 0.088166 36.821 0.088166 36.821 0.996044 126.88
8.74550200 0.996041 126.84 0.088172 36.821 0.088172 36.821 0.996044 126.88
8.74550400 0.996040 126.84 0.088179 36.820 0.088179 36.820 0.996043 126.88
8.74550600 0.996039 126.84 0.088185 36.820 0.088185 36.820 0.996042 126.88
8.74550800 0.996038 126.83 0.088192 36.819 0.088192 36.819 0.996041 126.88
8.74551000 0.996038 126.83 0.088198 36.819 0.088198 36.819 0.996041 126.88
8.74551200 0.996037 126.83 0.088205 36.818 0.088205 36.818 0.996040 126.88
8.74551400 0.996036 126.83 0.088212 36.818 0.088212 36.818 0.996039 126.88
8.74551600 0.996035 126.83 0.088218 36.817 0.088218 36.817 0.996038 126.88
8.74551800 0.996034 126.83 0.088225 36.817 0.088225 36.817 0.996038 126.88
8.74552000 0.996034 126.83 0.088232 36.816 0.088232 36.816 0.996037 126.88
8.74552200 0.996033 126.83 0.088238 36.816 0.088238 36.816 0.996036 126.88
8.74552400 0.996032 126.83 0.088245 36.815 0.088245 36.815 0.996035 126.88
8.74552600 0.996031 126.83 0.088252 36.815 0.088252 36.815 0.996034 126.88
8.74552800 0.996030 126.83 0.088258 36.814 0.088258 36.814 0.996034 126.88
8.74553000 0.996030 126.83 0.088265 36.814 0.088265 36.814 0.996033 126.88
8.74553200 0.996029 126.83 0.088272 36.813 0.088272 36.813 0.996032 126.88
8.74553400 0.996028 126.83 0.088279 36.813 0.088279 36.813 0.996031 126.88
8.74553600 0.996027 126.83 0.088286 36.812 0.088286 36.812 0.996030 126.88
8.74553800 0.996026 126.83 0.088293 36.812 0.088293 36.812 0.996030 126.87
8.74554000 0.996026 126.83 0.088300 36.811 0.088300 36.811 0.996029 126.87
8.74554200 0.996025 126.83 0.088306 36.810 0.088306 36.810 0.996028 126.87
8.74554400 0.996024 126.83 0.088313 36.810 0.088313 36.810 0.996027 126.87
8.74554600 0.996023 126.83 0.088320 36.809 0.088320 36.809 0.996026 126.87
8.74554800 0.996022 126.83 0.088327 36.809 0.088327 36.809 0.996026 126.87
8.74555000 0.996021 126.83 0.088334 36.808 0.088334 36.808 0.996025 126.87
8.74555200 0.996021 126.83 0.088341 36.808 0.088341 36.808 0.996024 126.87
8.74555400 0.996020 126.83 0.088348 36.807 0.088348 36.807 0.996023 126.87
8.74555600 0.996019 126.82 0.088355 36.807 0.088355 36.807 0.996022 126.87
8.74555800 0.996018 126.82 0.088363 36.806 0.088363 36.806 0.996022 126.87
8.74556000 0.996017 126.82 0.088370 36.806 0.088370 36.806 0.996021 126.87
8.74556200 0.996016 126.82 0.088377 36.805 0.088377 36.805 0.996020 126.87
8.74556400 0.996016 126.82 0.088384 36.804 0.088384 36.804 0.996019 126.87
8.74556600 0.996015 126.82 0.088391 36.804 0.088391 36.804 0.996018 126.87
8.74556800 0.996014 126.82 0.088398 36.803 0.088398 36.803 0.996017 126.87
8.74557000 0.996013 126.82 0.088406 36.803 0.088406 36.803 0.996016 126.87
8.74557200 0.996012 126.82 0.088413 36.802 0.088413 36.802 0.996016 126.87
8.74557400 0.996011 126.82 0.088420 36.802 0.088420 36.802 0.996015 126.87
8.74557600 0.996010 126.82 0.088427 36.801 0.088427 36.801 0.996014 126.87
8.74557800 0.996010 126.82 0.088435 36.801 0.088435 36.801 0.996013 126.87
8.74558000 0.996009 126.82 0.088442 36.800 0.088442 36.800 0.996012 126.87
8.74558200 0.996008 126.82 0.088449 36.799 0.088449 36.799 0.996011 126.87
8.74558400 0.996007 126.82 0.088457 36.799 0.088457 36.799 0.996010 126.87
8.74558600 0.996006 126.82 0.088464 36.798 0.088464 36.798 0.996010 126.87
8.74558800 0.996005 126.82 0.088472 36.798 0.088472 36.798 0.996009 126.86
8.74559000 0.996004 126.82 0.088479 36.797 0.088479 36.797 0.996008 126.86
8.74559200 0.996003 126.82 0.088487 36.796 0.088487 36.796 0.996007 126.86
8.74559400 0.996002 126.82 0.088494 36.796 0.088494 36.796 0.996006 126.86
8.74559600 0.996002 126.82 0.088502 36.795 0.088502 36.795 0.996005 126.86
8.74559800 0.996001 126.82 0.088509 36.795 0.088509 36.795 0.996004 126.86
8.74560000 0.996000 126.81 0.088517 36.794 0.088517 36.794 0.996003 126.86
8.74560200 0.995999 126.81 0.088524 36.794 0.088524 36.794 0.996002 126.86
8.74560400 0.995998 126.81 0.088532 36.793 0.088532 36.793 0.996002 126.86
8.74560600 0.995997 126.81 0.088540 36.792 0.088540 36.792 0.996001 126.86
8.74560800 0.995996 126.81 0.088547 36.792 0.088547 36.792 0.996000 126.86
8.74561000 0.995995 126.81 0.088555 36.791 0.088555 36.791 0.995999 126.86
8.74561200 0.995994 126.81 0.088563 36.791 0.088563 36.791 0.995998 126.86
8.74561400 0.995993 126.81 0.088571 36.790 0.088571 36.790 0.995997 126.86
8.74561600 0.995992 126.81 0.088578 36.789 0.088578 36.789 0.995996 126.86
8.74561800 0.995991 126.81 0.088586 36.789 0.088586 36.789 0.995995 126.86
8.74562000 0.995990 126.81 0.088594 36.788 0.088594 36.788 0.995994 126.86
8.74562200 0.995990 126.81 0.088602 36.787 0.088602 36.787 0.995993 126.86
8.74562400 0.995989 126.81 0.088610 36.787 0.088610 36.787 0.995992 126.86
8.74562600 0.995988 126.81 0.088618 36.786 0.088618 36.786 0.995991 126.86
8.74562800 0.995987 126.81 0.088626 36.786 0.088626 36.786 0.995990 126.86
8.74563000 0.995986 126.81 0.088633 36.785 0.088633 36.785 0.995989 126.86
8.74563200 0.995985 126.81 0.088641 36.784 0.088641 36.784 0.995989 126.85
8.74563400 0.995984 126.81 0.088649 36.784 0.088649 36.784 0.995988 126.85
8.74563600 0.995983 126.81 0.088658 36.783 0.088658 36.783 0.995987 126.85
8.74563800 0.995982 126.81 0.088666 36.782 0.088666 36.782 0.995986 126.85
8.74564000 0.995981 126.81 0.088674 36.782 0.088674 36.782 0.995985 126.85
8.74564200 0.995980 126.80 0.088682 36.781 0.088682 36.781 0.995984 126.85
8.74564400 0.995979 126.80 0.088690 36.781 0.088690 36.781 0.995983 126.85
8.74564600 0.995978 126.80 0.088698 36.780 0.088698 36.780 0.995982 126.85
8.74564800 0.995977 126.80 0.088706 36.779 0.088706 36.779 0.995981 126.85
8.74565000 0.995976 126.80 0.088715 36.779 0.088715 36.779 0.995980 126.85
8.74565200 0.995975 126.80 0.088723 36.778 0.088723 36.778 0.995979 126.85
8.74565400 0.995974 126.80 0.088731 36.777 0.088731 36.777 0.995978 126.85
8.74565600 0.995973 126.80 0.088739 36.777 0.088739 36.777 0.995977 126.85
8.74565800 0.995972 126.80 0.088748 36.776 0.088748 36.776 0.995976 126.85
8.74566000 0.995971 126.80 0.088756 36.775 0.088756 36.775 0.995975 126.85
8.74566200 0.995970 126.80 0.088765 36.775 0.088765 36.775 0.995974 126.85
8.74566400 0.995969 126.80 0.088773 36.774 0.088773 36.774 0.995973 126.85
8.74566600 0.995968 126.80 0.088781 36.773 0.088781 36.773 0.995972 126.85
8.74566800 0.995967 126.80 0.088790 36.773 0.088790 36.773 0.995971 126.85
8.74567000 0.995966 126.80 0.088798 36.772 0.088798 36.772 0.995970 126.85
8.74567200 0.995965 126.80 0.088807 36.771 0.088807 36.771 0.995969 126.85
8.74567400 0.995964 126.80 0.088816 36.771 0.088816 36.771 0.995968 126.84
8.74567600 0.995963 126.80 0.088824 36.770 0.088824 36.770 0.995967 126.84
8.74567800 0.995961 126.80 0.088833 36.769 0.088833 36.769 0.995966 126.84
8.74568000 0.995960 126.80 0.088841 36.769 0.088841 36.769 0.995965 126.84
8.74568200 0.995959 126.79 0.088850 36.768 0.088850 36.768 0.995963 126.84
8.74568400 0.995958 126.79 0.088859 36.767 0.088859 36.767 0.995962 126.84
8.74568600 0.995957 126.79 0.088868 36.767 0.088868 36.767 0.995961 126.84
8.74568800 0.995956 126.79 0.088876 36.766 0.088876 36.766 0.995960 126.84
8.74569000 0.995955 126.79 0.088885 36.765 0.088885 36.765 0.995959 126.84
8.74569200 0.995954 126.79 0.088894 36.764 0.088894 36.764 0.995958 126.84
8.74569400 0.995953 126.79 0.088903 36.764 0.088903 36.764 0.995957 126.84
8.74569600 0.995952 126.79 0.088912 36.763 0.088912 36.763 0.995956 126.84
8.74569800 0.995951 126.79 0.088921 36.762 0.088921 36.762 0.995955 126.84
8.74570000 0.995950 126.79 0.088930 36.762 0.088930 36.762 0.995954 126.84
8.74570200 0.995948 126.79 0.088939 36.761 0.088939 36.761 0.995953 126.84
8.74570400 0.995947 126.79 0.088948 36.760 0.088948 36.760 0.995952 126.84
8.74570600 0.995946 126.79 0.088957 36.759 0.088957 36.759 0.995951 126.84
8.74570800 0.995945 126.79 0.088966 36.759 0.088966 36.759 0.995949 126.84
8.74571000 0.995944 126.79 0.088975 36.758 0.088975 36.758 0.995948 126.84
8.74571200 0.995943 126.79 0.088984 36.757 0.088984 36.757 0.995947 126.84
8.74571400 0.995942 126.79 0.088993 36.757 0.088993 36.757 0.995946 126.83
8.74571600 0.995941 126.79 0.089003 36.756 0.089003 36.756 0.995945 126.83
8.74571800 0.995939 126.79 0.089012 36.755 0.089012 36.755 0.995944 126.83
8.74572000 0.995938 126.78 0.089021 36.754 0.089021 36.754 0.995943 126.83
8.74572200 0.995937 126.78 0.089030 36.754 0.089030 36.754 0.995942 126.83
8.74572400 0.995936 126.78 0.089040 36.753 0.089040 36.753 0.995940 126.83
8.74572600 0.995935 126.78 0.089049 36.752 0.089049 36.752 0.995939 126.83
8.74572800 0.995934 126.78 0.089059 36.751 0.089059 36.751 0.995938 126.83
8.74573000 0.995932 126.78 0.089068 36.751 0.089068 36.751 0.995937 126.83
8.74573200 0.995931 126.78 0.089078 36.750 0.089078 36.750 0.995936 126.83
8.74573400 0.995930 126.78 0.089087 36.749 0.089087 36.749 0.995935 126.83
8.74573600 0.995929 126.78 0.089097 36.748 0.089097 36.748 0.995933 126.83
8.74573800 0.995928 126.78 0.089106 36.748 0.089106 36.748 0.995932 126.83
8.74574000 0.995927 126.78 0.089116 36.747 0.089116 36.747 0.995931 126.83
8.74574200 0.995925 126.78 0.089126 36.746 0.089126 36.746 0.995930 126.83
8.74574400 0.995924 126.78 0.089135 36.745 0.089135 36.745 0.995929 126.83
8.74574600 0.995923 126.78 0.089145 36.744 0.089145 36.744 0.995928 126.83
8.74574800 0.995922 126.78 0.089155 36.744 0.089155 36.744 0.995926 126.83
8.74575000 0.995920 126.78 0.089165 36.743 0.089165 36.743 0.995925 126.82
8.74575200 0.995919 126.78 0.089175 36.742 0.089175 36.742 0.995924 126.82
8.74575400 0.995918 126.77 0.089184 36.741 0.089184 36.741 0.995923 126.82
8.74575600 0.995917 126.77 0.089194 36.740 0.089194 36.740 0.995921 126.82
8.74575800 0.995915 126.77 0.089204 36.740 0.089204 36.740 0.995920 126.82
8.74576000 0.995914 126.77 0.089214 36.739 0.089214 36.739 0.995919 126.82
8.74576200 0.995913 126.77 0.089224 36.738 0.089224 36.738 0.995918 126.82
8.74576400 0.995912 126.77 0.089234 36.737 0.089234 36.737 0.995917 126.82
8.74576600 0.995910 126.77 0.089244 36.736 0.089244 36.736 0.995915 126.82
8.74576800 0.995909 126.77 0.089255 36.736 0.089255 36.736 0.995914 126.82
8.74577000 0.995908 126.77 0.089265 36.735 0.089265 36.735 0.995913 126.82
8.74577200 0.995907 126.77 0.089275 36.734 0.089275 36.734 0.995911 126.82
8.74577400 0.995905 126.77 0.089285 36.733 0.089285 36.733 0.995910 126.82
8.74577600 0.995904 126.77 0.089296 36.732 0.089296 36.732 0.995909 126.82
8.74577800 0.995903 126.77 0.089306 36.732 0.089306 36.732 0.995908 126.82
8.74578000 0.995901 126.77 0.089316 36.731 0.089316 36.731 0.995906 126.82
8.74578200 0.995900 126.77 0.089327 36.730 0.089327 36.730 0.995905 126.82
8.74578400 0.995899 126.77 0.089337 36.729 0.089337 36.729 0.995904 126.82