! Sonnet Data File
! From: emgraph Version : 16.52
! From Project: Qubit_Xmon2_brg_para2
! Data is De-embedded 
! Data File Written: 11/12/2017 21:29:58
!< HDATE 11/12/2017 19:10:47
!< MDATE 11/12/2017 19:10:47
!< PARAMS
!< Lj = 11.0
!< Gap = 6.0
!< Pwid = 2000.0
!< Airgap = 6.0
!< Width = 10.0
!< Bwid = 8.0
!< Dis1 = 650.0
!< Dis2 = 656.0
!< END PARAMS
# GHZ S MA R 34.65000
8.76500000 0.994352 123.39 0.106106 33.409 0.106106 33.409 0.994352 123.43
!< P1 F=8.765 Eeff=(5.13709823 -5.6953e-5) Z0=(34.64455 -9.67e-5) R=0.0 C=0.0 
!< P2 F=8.765 Eeff=(5.13709823 -5.6953e-5) Z0=(34.64455 -9.67e-5) R=0.0 C=0.0 
8.76502000 0.994352 123.39 0.106107 33.409 0.106107 33.409 0.994352 123.43
8.76504000 0.994351 123.39 0.106108 33.408 0.106108 33.408 0.994351 123.43
8.76506000 0.994351 123.39 0.106108 33.408 0.106108 33.408 0.994351 123.43
8.76508000 0.994351 123.39 0.106109 33.408 0.106109 33.408 0.994351 123.43
8.76510000 0.994351 123.39 0.106110 33.408 0.106110 33.408 0.994351 123.43
8.76512000 0.994351 123.39 0.106111 33.408 0.106111 33.408 0.994351 123.43
8.76514000 0.994351 123.39 0.106111 33.408 0.106111 33.408 0.994351 123.43
8.76516000 0.994351 123.39 0.106112 33.407 0.106112 33.407 0.994351 123.43
8.76518000 0.994351 123.39 0.106113 33.407 0.106113 33.407 0.994351 123.43
8.76520000 0.994351 123.39 0.106114 33.407 0.106114 33.407 0.994351 123.43
8.76522000 0.994351 123.39 0.106114 33.407 0.106114 33.407 0.994351 123.43
8.76524000 0.994351 123.39 0.106115 33.407 0.106115 33.407 0.994351 123.43
8.76526000 0.994351 123.39 0.106116 33.407 0.106116 33.407 0.994351 123.43
8.76528000 0.994350 123.39 0.106117 33.406 0.106117 33.406 0.994351 123.43
8.76530000 0.994350 123.39 0.106117 33.406 0.106117 33.406 0.994350 123.43
8.76532000 0.994350 123.39 0.106118 33.406 0.106118 33.406 0.994350 123.43
8.76534000 0.994350 123.39 0.106119 33.406 0.106119 33.406 0.994350 123.43
8.76536000 0.994350 123.38 0.106120 33.406 0.106120 33.406 0.994350 123.42
8.76538000 0.994350 123.38 0.106120 33.406 0.106120 33.406 0.994350 123.42
8.76540000 0.994350 123.38 0.106121 33.406 0.106121 33.406 0.994350 123.42
8.76542000 0.994350 123.38 0.106122 33.405 0.106122 33.405 0.994350 123.42
8.76544000 0.994350 123.38 0.106123 33.405 0.106123 33.405 0.994350 123.42
8.76546000 0.994350 123.38 0.106124 33.405 0.106124 33.405 0.994350 123.42
8.76548000 0.994350 123.38 0.106124 33.405 0.106124 33.405 0.994350 123.42
8.76550000 0.994350 123.38 0.106125 33.405 0.106125 33.405 0.994350 123.42
8.76552000 0.994349 123.38 0.106126 33.405 0.106126 33.405 0.994350 123.42
8.76554000 0.994349 123.38 0.106127 33.404 0.106127 33.404 0.994349 123.42
8.76556000 0.994349 123.38 0.106127 33.404 0.106127 33.404 0.994349 123.42
8.76558000 0.994349 123.38 0.106128 33.404 0.106128 33.404 0.994349 123.42
8.76560000 0.994349 123.38 0.106129 33.404 0.106129 33.404 0.994349 123.42
8.76562000 0.994349 123.38 0.106130 33.404 0.106130 33.404 0.994349 123.42
8.76564000 0.994349 123.38 0.106130 33.404 0.106130 33.404 0.994349 123.42
8.76566000 0.994349 123.38 0.106131 33.403 0.106131 33.403 0.994349 123.42
8.76568000 0.994349 123.38 0.106132 33.403 0.106132 33.403 0.994349 123.42
8.76570000 0.994349 123.38 0.106133 33.403 0.106133 33.403 0.994349 123.42
8.76572000 0.994349 123.38 0.106133 33.403 0.106133 33.403 0.994349 123.42
8.76574000 0.994349 123.38 0.106134 33.403 0.106134 33.403 0.994349 123.42
8.76576000 0.994349 123.38 0.106135 33.403 0.106135 33.403 0.994349 123.42
8.76578000 0.994348 123.38 0.106136 33.403 0.106136 33.403 0.994348 123.42
8.76580000 0.994348 123.38 0.106137 33.402 0.106137 33.402 0.994348 123.42
8.76582000 0.994348 123.38 0.106137 33.402 0.106137 33.402 0.994348 123.42
8.76584000 0.994348 123.38 0.106138 33.402 0.106138 33.402 0.994348 123.42
8.76586000 0.994348 123.38 0.106139 33.402 0.106139 33.402 0.994348 123.42
8.76588000 0.994348 123.38 0.106140 33.402 0.106140 33.402 0.994348 123.42
8.76590000 0.994348 123.38 0.106140 33.402 0.106140 33.402 0.994348 123.42
8.76592000 0.994348 123.38 0.106141 33.401 0.106141 33.401 0.994348 123.42
8.76594000 0.994348 123.38 0.106142 33.401 0.106142 33.401 0.994348 123.42
8.76596000 0.994348 123.38 0.106143 33.401 0.106143 33.401 0.994348 123.42
8.76598000 0.994348 123.38 0.106144 33.401 0.106144 33.401 0.994348 123.42
8.76600000 0.994348 123.38 0.106144 33.401 0.106144 33.401 0.994348 123.42
8.76602000 0.994347 123.38 0.106145 33.401 0.106145 33.401 0.994347 123.42
8.76604000 0.994347 123.38 0.106146 33.400 0.106146 33.400 0.994347 123.42
8.76606000 0.994347 123.38 0.106147 33.400 0.106147 33.400 0.994347 123.42
8.76608000 0.994347 123.38 0.106147 33.400 0.106147 33.400 0.994347 123.42
8.76610000 0.994347 123.38 0.106148 33.400 0.106148 33.400 0.994347 123.42
8.76612000 0.994347 123.38 0.106149 33.400 0.106149 33.400 0.994347 123.42
8.76614000 0.994347 123.38 0.106150 33.400 0.106150 33.400 0.994347 123.42
8.76616000 0.994347 123.38 0.106151 33.399 0.106151 33.399 0.994347 123.42
8.76618000 0.994347 123.38 0.106151 33.399 0.106151 33.399 0.994347 123.42
8.76620000 0.994347 123.38 0.106152 33.399 0.106152 33.399 0.994347 123.42
8.76622000 0.994347 123.38 0.106153 33.399 0.106153 33.399 0.994347 123.42
8.76624000 0.994346 123.38 0.106154 33.399 0.106154 33.399 0.994347 123.42
8.76626000 0.994346 123.38 0.106154 33.399 0.106154 33.399 0.994346 123.42
8.76628000 0.994346 123.38 0.106155 33.398 0.106155 33.398 0.994346 123.42
8.76630000 0.994346 123.38 0.106156 33.398 0.106156 33.398 0.994346 123.42
8.76632000 0.994346 123.38 0.106157 33.398 0.106157 33.398 0.994346 123.42
8.76634000 0.994346 123.38 0.106158 33.398 0.106158 33.398 0.994346 123.42
8.76636000 0.994346 123.38 0.106158 33.398 0.106158 33.398 0.994346 123.42
8.76638000 0.994346 123.38 0.106159 33.398 0.106159 33.398 0.994346 123.42
8.76640000 0.994346 123.38 0.106160 33.398 0.106160 33.398 0.994346 123.42
8.76642000 0.994346 123.38 0.106161 33.397 0.106161 33.397 0.994346 123.42
8.76644000 0.994346 123.38 0.106162 33.397 0.106162 33.397 0.994346 123.42
8.76646000 0.994346 123.38 0.106162 33.397 0.106162 33.397 0.994346 123.42
8.76648000 0.994345 123.38 0.106163 33.397 0.106163 33.397 0.994346 123.42
8.76650000 0.994345 123.38 0.106164 33.397 0.106164 33.397 0.994345 123.42
8.76652000 0.994345 123.38 0.106165 33.397 0.106165 33.397 0.994345 123.42
8.76654000 0.994345 123.38 0.106166 33.396 0.106166 33.396 0.994345 123.42
8.76656000 0.994345 123.38 0.106166 33.396 0.106166 33.396 0.994345 123.42
8.76658000 0.994345 123.38 0.106167 33.396 0.106167 33.396 0.994345 123.42
8.76660000 0.994345 123.37 0.106168 33.396 0.106168 33.396 0.994345 123.42
8.76662000 0.994345 123.37 0.106169 33.396 0.106169 33.396 0.994345 123.41
8.76664000 0.994345 123.37 0.106170 33.396 0.106170 33.396 0.994345 123.41
8.76666000 0.994345 123.37 0.106170 33.395 0.106170 33.395 0.994345 123.41
8.76668000 0.994345 123.37 0.106171 33.395 0.106171 33.395 0.994345 123.41
8.76670000 0.994345 123.37 0.106172 33.395 0.106172 33.395 0.994345 123.41
8.76672000 0.994344 123.37 0.106173 33.395 0.106173 33.395 0.994344 123.41
8.76674000 0.994344 123.37 0.106174 33.395 0.106174 33.395 0.994344 123.41
8.76676000 0.994344 123.37 0.106174 33.395 0.106174 33.395 0.994344 123.41
8.76678000 0.994344 123.37 0.106175 33.394 0.106175 33.394 0.994344 123.41
8.76680000 0.994344 123.37 0.106176 33.394 0.106176 33.394 0.994344 123.41
8.76682000 0.994344 123.37 0.106177 33.394 0.106177 33.394 0.994344 123.41
8.76684000 0.994344 123.37 0.106178 33.394 0.106178 33.394 0.994344 123.41
8.76686000 0.994344 123.37 0.106178 33.394 0.106178 33.394 0.994344 123.41
8.76688000 0.994344 123.37 0.106179 33.394 0.106179 33.394 0.994344 123.41
8.76690000 0.994344 123.37 0.106180 33.394 0.106180 33.394 0.994344 123.41
8.76692000 0.994344 123.37 0.106181 33.393 0.106181 33.393 0.994344 123.41
8.76694000 0.994343 123.37 0.106182 33.393 0.106182 33.393 0.994344 123.41
8.76696000 0.994343 123.37 0.106182 33.393 0.106182 33.393 0.994343 123.41
8.76698000 0.994343 123.37 0.106183 33.393 0.106183 33.393 0.994343 123.41
8.76700000 0.994343 123.37 0.106184 33.393 0.106184 33.393 0.994343 123.41
8.76702000 0.994343 123.37 0.106185 33.393 0.106185 33.393 0.994343 123.41
8.76704000 0.994343 123.37 0.106186 33.392 0.106186 33.392 0.994343 123.41
8.76706000 0.994343 123.37 0.106187 33.392 0.106187 33.392 0.994343 123.41
8.76708000 0.994343 123.37 0.106187 33.392 0.106187 33.392 0.994343 123.41
8.76710000 0.994343 123.37 0.106188 33.392 0.106188 33.392 0.994343 123.41
8.76712000 0.994343 123.37 0.106189 33.392 0.106189 33.392 0.994343 123.41
8.76714000 0.994343 123.37 0.106190 33.392 0.106190 33.392 0.994343 123.41
8.76716000 0.994343 123.37 0.106191 33.391 0.106191 33.391 0.994343 123.41
8.76718000 0.994342 123.37 0.106191 33.391 0.106191 33.391 0.994342 123.41
8.76720000 0.994342 123.37 0.106192 33.391 0.106192 33.391 0.994342 123.41
8.76722000 0.994342 123.37 0.106193 33.391 0.106193 33.391 0.994342 123.41
8.76724000 0.994342 123.37 0.106194 33.391 0.106194 33.391 0.994342 123.41
8.76726000 0.994342 123.37 0.106195 33.391 0.106195 33.391 0.994342 123.41
8.76728000 0.994342 123.37 0.106196 33.390 0.106196 33.390 0.994342 123.41
8.76730000 0.994342 123.37 0.106196 33.390 0.106196 33.390 0.994342 123.41
8.76732000 0.994342 123.37 0.106197 33.390 0.106197 33.390 0.994342 123.41
8.76734000 0.994342 123.37 0.106198 33.390 0.106198 33.390 0.994342 123.41
8.76736000 0.994342 123.37 0.106199 33.390 0.106199 33.390 0.994342 123.41
8.76738000 0.994342 123.37 0.106200 33.390 0.106200 33.390 0.994342 123.41
8.76740000 0.994341 123.37 0.106201 33.389 0.106201 33.389 0.994341 123.41
8.76742000 0.994341 123.37 0.106201 33.389 0.106201 33.389 0.994341 123.41
8.76744000 0.994341 123.37 0.106202 33.389 0.106202 33.389 0.994341 123.41
8.76746000 0.994341 123.37 0.106203 33.389 0.106203 33.389 0.994341 123.41
8.76748000 0.994341 123.37 0.106204 33.389 0.106204 33.389 0.994341 123.41
8.76750000 0.994341 123.37 0.106205 33.389 0.106205 33.389 0.994341 123.41
8.76752000 0.994341 123.37 0.106206 33.388 0.106206 33.388 0.994341 123.41
8.76754000 0.994341 123.37 0.106206 33.388 0.106206 33.388 0.994341 123.41
8.76756000 0.994341 123.37 0.106207 33.388 0.106207 33.388 0.994341 123.41
8.76758000 0.994341 123.37 0.106208 33.388 0.106208 33.388 0.994341 123.41
8.76760000 0.994341 123.37 0.106209 33.388 0.106209 33.388 0.994341 123.41
8.76762000 0.994340 123.37 0.106210 33.388 0.106210 33.388 0.994340 123.41
8.76764000 0.994340 123.37 0.106211 33.387 0.106211 33.387 0.994340 123.41
8.76766000 0.994340 123.37 0.106211 33.387 0.106211 33.387 0.994340 123.41
8.76768000 0.994340 123.37 0.106212 33.387 0.106212 33.387 0.994340 123.41
8.76770000 0.994340 123.37 0.106213 33.387 0.106213 33.387 0.994340 123.41
8.76772000 0.994340 123.37 0.106214 33.387 0.106214 33.387 0.994340 123.41
8.76774000 0.994340 123.37 0.106215 33.387 0.106215 33.387 0.994340 123.41
8.76776000 0.994340 123.37 0.106216 33.387 0.106216 33.387 0.994340 123.41
8.76778000 0.994340 123.37 0.106216 33.386 0.106216 33.386 0.994340 123.41
8.76780000 0.994340 123.37 0.106217 33.386 0.106217 33.386 0.994340 123.41
8.76782000 0.994340 123.36 0.106218 33.386 0.106218 33.386 0.994340 123.41
8.76784000 0.994339 123.36 0.106219 33.386 0.106219 33.386 0.994339 123.41
8.76786000 0.994339 123.36 0.106220 33.386 0.106220 33.386 0.994339 123.40
8.76788000 0.994339 123.36 0.106221 33.386 0.106221 33.386 0.994339 123.40
8.76790000 0.994339 123.36 0.106222 33.385 0.106222 33.385 0.994339 123.40
8.76792000 0.994339 123.36 0.106222 33.385 0.106222 33.385 0.994339 123.40
8.76794000 0.994339 123.36 0.106223 33.385 0.106223 33.385 0.994339 123.40
8.76796000 0.994339 123.36 0.106224 33.385 0.106224 33.385 0.994339 123.40
8.76798000 0.994339 123.36 0.106225 33.385 0.106225 33.385 0.994339 123.40
8.76800000 0.994339 123.36 0.106226 33.385 0.106226 33.385 0.994339 123.40
8.76802000 0.994339 123.36 0.106227 33.384 0.106227 33.384 0.994339 123.40
8.76804000 0.994339 123.36 0.106227 33.384 0.106227 33.384 0.994339 123.40
8.76806000 0.994338 123.36 0.106228 33.384 0.106228 33.384 0.994338 123.40
8.76808000 0.994338 123.36 0.106229 33.384 0.106229 33.384 0.994338 123.40
8.76810000 0.994338 123.36 0.106230 33.384 0.106230 33.384 0.994338 123.40
8.76812000 0.994338 123.36 0.106231 33.384 0.106231 33.384 0.994338 123.40
8.76814000 0.994338 123.36 0.106232 33.383 0.106232 33.383 0.994338 123.40
8.76816000 0.994338 123.36 0.106233 33.383 0.106233 33.383 0.994338 123.40
8.76818000 0.994338 123.36 0.106233 33.383 0.106233 33.383 0.994338 123.40
8.76820000 0.994338 123.36 0.106234 33.383 0.106234 33.383 0.994338 123.40
8.76822000 0.994338 123.36 0.106235 33.383 0.106235 33.383 0.994338 123.40
8.76824000 0.994338 123.36 0.106236 33.383 0.106236 33.383 0.994338 123.40
8.76826000 0.994338 123.36 0.106237 33.382 0.106237 33.382 0.994338 123.40
8.76828000 0.994337 123.36 0.106238 33.382 0.106238 33.382 0.994337 123.40
8.76830000 0.994337 123.36 0.106239 33.382 0.106239 33.382 0.994337 123.40
8.76832000 0.994337 123.36 0.106240 33.382 0.106240 33.382 0.994337 123.40
8.76834000 0.994337 123.36 0.106240 33.382 0.106240 33.382 0.994337 123.40
8.76836000 0.994337 123.36 0.106241 33.382 0.106241 33.382 0.994337 123.40
8.76838000 0.994337 123.36 0.106242 33.381 0.106242 33.381 0.994337 123.40
8.76840000 0.994337 123.36 0.106243 33.381 0.106243 33.381 0.994337 123.40
8.76842000 0.994337 123.36 0.106244 33.381 0.106244 33.381 0.994337 123.40
8.76844000 0.994337 123.36 0.106245 33.381 0.106245 33.381 0.994337 123.40
8.76846000 0.994337 123.36 0.106246 33.381 0.106246 33.381 0.994337 123.40
8.76848000 0.994336 123.36 0.106247 33.381 0.106247 33.381 0.994337 123.40
8.76850000 0.994336 123.36 0.106247 33.380 0.106247 33.380 0.994336 123.40
8.76852000 0.994336 123.36 0.106248 33.380 0.106248 33.380 0.994336 123.40
8.76854000 0.994336 123.36 0.106249 33.380 0.106249 33.380 0.994336 123.40
8.76856000 0.994336 123.36 0.106250 33.380 0.106250 33.380 0.994336 123.40
8.76858000 0.994336 123.36 0.106251 33.380 0.106251 33.380 0.994336 123.40
8.76860000 0.994336 123.36 0.106252 33.380 0.106252 33.380 0.994336 123.40
8.76862000 0.994336 123.36 0.106253 33.379 0.106253 33.379 0.994336 123.40
8.76864000 0.994336 123.36 0.106254 33.379 0.106254 33.379 0.994336 123.40
8.76866000 0.994336 123.36 0.106254 33.379 0.106254 33.379 0.994336 123.40
8.76868000 0.994336 123.36 0.106255 33.379 0.106255 33.379 0.994336 123.40
8.76870000 0.994335 123.36 0.106256 33.379 0.106256 33.379 0.994335 123.40
8.76872000 0.994335 123.36 0.106257 33.379 0.106257 33.379 0.994335 123.40
8.76874000 0.994335 123.36 0.106258 33.378 0.106258 33.378 0.994335 123.40
8.76876000 0.994335 123.36 0.106259 33.378 0.106259 33.378 0.994335 123.40
8.76878000 0.994335 123.36 0.106260 33.378 0.106260 33.378 0.994335 123.40
8.76880000 0.994335 123.36 0.106261 33.378 0.106261 33.378 0.994335 123.40
8.76882000 0.994335 123.36 0.106262 33.378 0.106262 33.378 0.994335 123.40
8.76884000 0.994335 123.36 0.106262 33.378 0.106262 33.378 0.994335 123.40
8.76886000 0.994335 123.36 0.106263 33.377 0.106263 33.377 0.994335 123.40
8.76888000 0.994335 123.36 0.106264 33.377 0.106264 33.377 0.994335 123.40
8.76890000 0.994334 123.36 0.106265 33.377 0.106265 33.377 0.994335 123.40
8.76892000 0.994334 123.36 0.106266 33.377 0.106266 33.377 0.994334 123.40
8.76894000 0.994334 123.36 0.106267 33.377 0.106267 33.377 0.994334 123.40
8.76896000 0.994334 123.36 0.106268 33.377 0.106268 33.377 0.994334 123.40
8.76898000 0.994334 123.36 0.106269 33.376 0.106269 33.376 0.994334 123.40
8.76900000 0.994334 123.36 0.106270 33.376 0.106270 33.376 0.994334 123.40
8.76902000 0.994334 123.35 0.106270 33.376 0.106270 33.376 0.994334 123.40
8.76904000 0.994334 123.35 0.106271 33.376 0.106271 33.376 0.994334 123.40
8.76906000 0.994334 123.35 0.106272 33.376 0.106272 33.376 0.994334 123.40
8.76908000 0.994334 123.35 0.106273 33.376 0.106273 33.376 0.994334 123.39
8.76910000 0.994334 123.35 0.106274 33.375 0.106274 33.375 0.994334 123.39
8.76912000 0.994333 123.35 0.106275 33.375 0.106275 33.375 0.994333 123.39
8.76914000 0.994333 123.35 0.106276 33.375 0.106276 33.375 0.994333 123.39
8.76916000 0.994333 123.35 0.106277 33.375 0.106277 33.375 0.994333 123.39
8.76918000 0.994333 123.35 0.106278 33.375 0.106278 33.375 0.994333 123.39
8.76920000 0.994333 123.35 0.106279 33.375 0.106279 33.375 0.994333 123.39
8.76922000 0.994333 123.35 0.106279 33.374 0.106279 33.374 0.994333 123.39
8.76924000 0.994333 123.35 0.106280 33.374 0.106280 33.374 0.994333 123.39
8.76926000 0.994333 123.35 0.106281 33.374 0.106281 33.374 0.994333 123.39
8.76928000 0.994333 123.35 0.106282 33.374 0.106282 33.374 0.994333 123.39
8.76930000 0.994333 123.35 0.106283 33.374 0.106283 33.374 0.994333 123.39
8.76932000 0.994332 123.35 0.106284 33.374 0.106284 33.374 0.994332 123.39
8.76934000 0.994332 123.35 0.106285 33.373 0.106285 33.373 0.994332 123.39
8.76936000 0.994332 123.35 0.106286 33.373 0.106286 33.373 0.994332 123.39
8.76938000 0.994332 123.35 0.106287 33.373 0.106287 33.373 0.994332 123.39
8.76940000 0.994332 123.35 0.106288 33.373 0.106288 33.373 0.994332 123.39
8.76942000 0.994332 123.35 0.106289 33.373 0.106289 33.373 0.994332 123.39
8.76944000 0.994332 123.35 0.106290 33.373 0.106290 33.373 0.994332 123.39
8.76946000 0.994332 123.35 0.106290 33.372 0.106290 33.372 0.994332 123.39
8.76948000 0.994332 123.35 0.106291 33.372 0.106291 33.372 0.994332 123.39
8.76950000 0.994332 123.35 0.106292 33.372 0.106292 33.372 0.994332 123.39
8.76952000 0.994331 123.35 0.106293 33.372 0.106293 33.372 0.994331 123.39
8.76954000 0.994331 123.35 0.106294 33.372 0.106294 33.372 0.994331 123.39
8.76956000 0.994331 123.35 0.106295 33.372 0.106295 33.372 0.994331 123.39
8.76958000 0.994331 123.35 0.106296 33.371 0.106296 33.371 0.994331 123.39
8.76960000 0.994331 123.35 0.106297 33.371 0.106297 33.371 0.994331 123.39
8.76962000 0.994331 123.35 0.106298 33.371 0.106298 33.371 0.994331 123.39
8.76964000 0.994331 123.35 0.106299 33.371 0.106299 33.371 0.994331 123.39
8.76966000 0.994331 123.35 0.106300 33.371 0.106300 33.371 0.994331 123.39
8.76968000 0.994331 123.35 0.106301 33.371 0.106301 33.371 0.994331 123.39
8.76970000 0.994331 123.35 0.106302 33.370 0.106302 33.370 0.994331 123.39
8.76972000 0.994330 123.35 0.106302 33.370 0.106302 33.370 0.994330 123.39
8.76974000 0.994330 123.35 0.106303 33.370 0.106303 33.370 0.994330 123.39
8.76976000 0.994330 123.35 0.106304 33.370 0.106304 33.370 0.994330 123.39
8.76978000 0.994330 123.35 0.106305 33.370 0.106305 33.370 0.994330 123.39
8.76980000 0.994330 123.35 0.106306 33.370 0.106306 33.370 0.994330 123.39
8.76982000 0.994330 123.35 0.106307 33.369 0.106307 33.369 0.994330 123.39
8.76984000 0.994330 123.35 0.106308 33.369 0.106308 33.369 0.994330 123.39
8.76986000 0.994330 123.35 0.106309 33.369 0.106309 33.369 0.994330 123.39
8.76988000 0.994330 123.35 0.106310 33.369 0.106310 33.369 0.994330 123.39
8.76990000 0.994330 123.35 0.106311 33.369 0.106311 33.369 0.994330 123.39
8.76992000 0.994329 123.35 0.106312 33.369 0.106312 33.369 0.994329 123.39
8.76994000 0.994329 123.35 0.106313 33.368 0.106313 33.368 0.994329 123.39
8.76996000 0.994329 123.35 0.106314 33.368 0.106314 33.368 0.994329 123.39
8.76998000 0.994329 123.35 0.106315 33.368 0.106315 33.368 0.994329 123.39
8.77000000 0.994329 123.35 0.106316 33.368 0.106316 33.368 0.994329 123.39
8.77002000 0.994329 123.35 0.106317 33.368 0.106317 33.368 0.994329 123.39
8.77004000 0.994329 123.35 0.106318 33.367 0.106318 33.367 0.994329 123.39
8.77006000 0.994329 123.35 0.106318 33.367 0.106318 33.367 0.994329 123.39
8.77008000 0.994329 123.35 0.106319 33.367 0.106319 33.367 0.994329 123.39
8.77010000 0.994329 123.35 0.106320 33.367 0.106320 33.367 0.994329 123.39
8.77012000 0.994328 123.35 0.106321 33.367 0.106321 33.367 0.994328 123.39
8.77014000 0.994328 123.35 0.106322 33.367 0.106322 33.367 0.994328 123.39
8.77016000 0.994328 123.35 0.106323 33.366 0.106323 33.366 0.994328 123.39
8.77018000 0.994328 123.35 0.106324 33.366 0.106324 33.366 0.994328 123.39
8.77020000 0.994328 123.34 0.106325 33.366 0.106325 33.366 0.994328 123.39
8.77022000 0.994328 123.34 0.106326 33.366 0.106326 33.366 0.994328 123.39
8.77024000 0.994328 123.34 0.106327 33.366 0.106327 33.366 0.994328 123.39
8.77026000 0.994328 123.34 0.106328 33.366 0.106328 33.366 0.994328 123.39
8.77028000 0.994328 123.34 0.106329 33.365 0.106329 33.365 0.994328 123.38
8.77030000 0.994327 123.34 0.106330 33.365 0.106330 33.365 0.994328 123.38
8.77032000 0.994327 123.34 0.106331 33.365 0.106331 33.365 0.994327 123.38
8.77034000 0.994327 123.34 0.106332 33.365 0.106332 33.365 0.994327 123.38
8.77036000 0.994327 123.34 0.106333 33.365 0.106333 33.365 0.994327 123.38
8.77038000 0.994327 123.34 0.106334 33.365 0.106334 33.365 0.994327 123.38
8.77040000 0.994327 123.34 0.106335 33.364 0.106335 33.364 0.994327 123.38
8.77042000 0.994327 123.34 0.106336 33.364 0.106336 33.364 0.994327 123.38
8.77044000 0.994327 123.34 0.106337 33.364 0.106337 33.364 0.994327 123.38
8.77046000 0.994327 123.34 0.106338 33.364 0.106338 33.364 0.994327 123.38
8.77048000 0.994327 123.34 0.106339 33.364 0.106339 33.364 0.994327 123.38
8.77050000 0.994326 123.34 0.106340 33.364 0.106340 33.364 0.994326 123.38
8.77052000 0.994326 123.34 0.106341 33.363 0.106341 33.363 0.994326 123.38
8.77054000 0.994326 123.34 0.106342 33.363 0.106342 33.363 0.994326 123.38
8.77056000 0.994326 123.34 0.106343 33.363 0.106343 33.363 0.994326 123.38
8.77058000 0.994326 123.34 0.106344 33.363 0.106344 33.363 0.994326 123.38
8.77060000 0.994326 123.34 0.106345 33.363 0.106345 33.363 0.994326 123.38
8.77062000 0.994326 123.34 0.106346 33.363 0.106346 33.363 0.994326 123.38
8.77064000 0.994326 123.34 0.106347 33.362 0.106347 33.362 0.994326 123.38
8.77066000 0.994326 123.34 0.106347 33.362 0.106347 33.362 0.994326 123.38
8.77068000 0.994325 123.34 0.106348 33.362 0.106348 33.362 0.994326 123.38
8.77070000 0.994325 123.34 0.106349 33.362 0.106349 33.362 0.994325 123.38
8.77072000 0.994325 123.34 0.106350 33.362 0.106350 33.362 0.994325 123.38
8.77074000 0.994325 123.34 0.106351 33.361 0.106351 33.361 0.994325 123.38
8.77076000 0.994325 123.34 0.106352 33.361 0.106352 33.361 0.994325 123.38
8.77078000 0.994325 123.34 0.106353 33.361 0.106353 33.361 0.994325 123.38
8.77080000 0.994325 123.34 0.106354 33.361 0.106354 33.361 0.994325 123.38
8.77082000 0.994325 123.34 0.106355 33.361 0.106355 33.361 0.994325 123.38
8.77084000 0.994325 123.34 0.106356 33.361 0.106356 33.361 0.994325 123.38
8.77086000 0.994325 123.34 0.106357 33.360 0.106357 33.360 0.994325 123.38
8.77088000 0.994324 123.34 0.106358 33.360 0.106358 33.360 0.994324 123.38
8.77090000 0.994324 123.34 0.106359 33.360 0.106359 33.360 0.994324 123.38
8.77092000 0.994324 123.34 0.106360 33.360 0.106360 33.360 0.994324 123.38
8.77094000 0.994324 123.34 0.106361 33.360 0.106361 33.360 0.994324 123.38
8.77096000 0.994324 123.34 0.106362 33.360 0.106362 33.360 0.994324 123.38
8.77098000 0.994324 123.34 0.106363 33.359 0.106363 33.359 0.994324 123.38
8.77100000 0.994324 123.34 0.106364 33.359 0.106364 33.359 0.994324 123.38
8.77102000 0.994324 123.34 0.106365 33.359 0.106365 33.359 0.994324 123.38
8.77104000 0.994324 123.34 0.106366 33.359 0.106366 33.359 0.994324 123.38
8.77106000 0.994323 123.34 0.106367 33.359 0.106367 33.359 0.994323 123.38
8.77108000 0.994323 123.34 0.106368 33.359 0.106368 33.359 0.994323 123.38
8.77110000 0.994323 123.34 0.106369 33.358 0.106369 33.358 0.994323 123.38
8.77112000 0.994323 123.34 0.106370 33.358 0.106370 33.358 0.994323 123.38
8.77114000 0.994323 123.34 0.106371 33.358 0.106371 33.358 0.994323 123.38
8.77116000 0.994323 123.34 0.106372 33.358 0.106372 33.358 0.994323 123.38
8.77118000 0.994323 123.34 0.106373 33.358 0.106373 33.358 0.994323 123.38
8.77120000 0.994323 123.34 0.106374 33.358 0.106374 33.358 0.994323 123.38
8.77122000 0.994323 123.34 0.106375 33.357 0.106375 33.357 0.994323 123.38
8.77124000 0.994322 123.34 0.106376 33.357 0.106376 33.357 0.994323 123.38
8.77126000 0.994322 123.34 0.106377 33.357 0.106377 33.357 0.994322 123.38
8.77128000 0.994322 123.34 0.106379 33.357 0.106379 33.357 0.994322 123.38
8.77130000 0.994322 123.34 0.106380 33.357 0.106380 33.357 0.994322 123.38
8.77132000 0.994322 123.34 0.106381 33.356 0.106381 33.356 0.994322 123.38
8.77134000 0.994322 123.34 0.106382 33.356 0.106382 33.356 0.994322 123.38
8.77136000 0.994322 123.33 0.106383 33.356 0.106383 33.356 0.994322 123.38
8.77138000 0.994322 123.33 0.106384 33.356 0.106384 33.356 0.994322 123.38
8.77140000 0.994322 123.33 0.106385 33.356 0.106385 33.356 0.994322 123.38
8.77142000 0.994321 123.33 0.106386 33.356 0.106386 33.356 0.994322 123.38
8.77144000 0.994321 123.33 0.106387 33.355 0.106387 33.355 0.994321 123.37
8.77146000 0.994321 123.33 0.106388 33.355 0.106388 33.355 0.994321 123.37
8.77148000 0.994321 123.33 0.106389 33.355 0.106389 33.355 0.994321 123.37
8.77150000 0.994321 123.33 0.106390 33.355 0.106390 33.355 0.994321 123.37
8.77152000 0.994321 123.33 0.106391 33.355 0.106391 33.355 0.994321 123.37
8.77154000 0.994321 123.33 0.106392 33.355 0.106392 33.355 0.994321 123.37
8.77156000 0.994321 123.33 0.106393 33.354 0.106393 33.354 0.994321 123.37
8.77158000 0.994321 123.33 0.106394 33.354 0.106394 33.354 0.994321 123.37
8.77160000 0.994320 123.33 0.106395 33.354 0.106395 33.354 0.994321 123.37
8.77162000 0.994320 123.33 0.106396 33.354 0.106396 33.354 0.994320 123.37
8.77164000 0.994320 123.33 0.106397 33.354 0.106397 33.354 0.994320 123.37
8.77166000 0.994320 123.33 0.106398 33.353 0.106398 33.353 0.994320 123.37
8.77168000 0.994320 123.33 0.106399 33.353 0.106399 33.353 0.994320 123.37
8.77170000 0.994320 123.33 0.106400 33.353 0.106400 33.353 0.994320 123.37
8.77172000 0.994320 123.33 0.106401 33.353 0.106401 33.353 0.994320 123.37
8.77174000 0.994320 123.33 0.106402 33.353 0.106402 33.353 0.994320 123.37
8.77176000 0.994320 123.33 0.106403 33.353 0.106403 33.353 0.994320 123.37
8.77178000 0.994319 123.33 0.106404 33.352 0.106404 33.352 0.994319 123.37
8.77180000 0.994319 123.33 0.106405 33.352 0.106405 33.352 0.994319 123.37
8.77182000 0.994319 123.33 0.106406 33.352 0.106406 33.352 0.994319 123.37
8.77184000 0.994319 123.33 0.106408 33.352 0.106408 33.352 0.994319 123.37
8.77186000 0.994319 123.33 0.106409 33.352 0.106409 33.352 0.994319 123.37
8.77188000 0.994319 123.33 0.106410 33.352 0.106410 33.352 0.994319 123.37
8.77190000 0.994319 123.33 0.106411 33.351 0.106411 33.351 0.994319 123.37
8.77192000 0.994319 123.33 0.106412 33.351 0.106412 33.351 0.994319 123.37
8.77194000 0.994319 123.33 0.106413 33.351 0.106413 33.351 0.994319 123.37
8.77196000 0.994318 123.33 0.106414 33.351 0.106414 33.351 0.994318 123.37
8.77198000 0.994318 123.33 0.106415 33.351 0.106415 33.351 0.994318 123.37
8.77200000 0.994318 123.33 0.106416 33.351 0.106416 33.351 0.994318 123.37
8.77202000 0.994318 123.33 0.106417 33.350 0.106417 33.350 0.994318 123.37
8.77204000 0.994318 123.33 0.106418 33.350 0.106418 33.350 0.994318 123.37
8.77206000 0.994318 123.33 0.106419 33.350 0.106419 33.350 0.994318 123.37
8.77208000 0.994318 123.33 0.106420 33.350 0.106420 33.350 0.994318 123.37
8.77210000 0.994318 123.33 0.106421 33.350 0.106421 33.350 0.994318 123.37
8.77212000 0.994317 123.33 0.106422 33.349 0.106422 33.349 0.994318 123.37
8.77214000 0.994317 123.33 0.106424 33.349 0.106424 33.349 0.994317 123.37
8.77216000 0.994317 123.33 0.106425 33.349 0.106425 33.349 0.994317 123.37
8.77218000 0.994317 123.33 0.106426 33.349 0.106426 33.349 0.994317 123.37
8.77220000 0.994317 123.33 0.106427 33.349 0.106427 33.349 0.994317 123.37
8.77222000 0.994317 123.33 0.106428 33.349 0.106428 33.349 0.994317 123.37
8.77224000 0.994317 123.33 0.106429 33.348 0.106429 33.348 0.994317 123.37
8.77226000 0.994317 123.33 0.106430 33.348 0.106430 33.348 0.994317 123.37
8.77228000 0.994317 123.33 0.106431 33.348 0.106431 33.348 0.994317 123.37
8.77230000 0.994316 123.33 0.106432 33.348 0.106432 33.348 0.994316 123.37
8.77232000 0.994316 123.33 0.106433 33.348 0.106433 33.348 0.994316 123.37
8.77234000 0.994316 123.33 0.106434 33.347 0.106434 33.347 0.994316 123.37
8.77236000 0.994316 123.33 0.106435 33.347 0.106435 33.347 0.994316 123.37
8.77238000 0.994316 123.33 0.106437 33.347 0.106437 33.347 0.994316 123.37
8.77240000 0.994316 123.33 0.106438 33.347 0.106438 33.347 0.994316 123.37
8.77242000 0.994316 123.33 0.106439 33.347 0.106439 33.347 0.994316 123.37
8.77244000 0.994316 123.33 0.106440 33.347 0.106440 33.347 0.994316 123.37
8.77246000 0.994315 123.33 0.106441 33.346 0.106441 33.346 0.994316 123.37
8.77248000 0.994315 123.32 0.106442 33.346 0.106442 33.346 0.994315 123.37
8.77250000 0.994315 123.32 0.106443 33.346 0.106443 33.346 0.994315 123.37
8.77252000 0.994315 123.32 0.106444 33.346 0.106444 33.346 0.994315 123.37
8.77254000 0.994315 123.32 0.106445 33.346 0.106445 33.346 0.994315 123.37
8.77256000 0.994315 123.32 0.106446 33.346 0.106446 33.346 0.994315 123.37
8.77258000 0.994315 123.32 0.106448 33.345 0.106448 33.345 0.994315 123.36
8.77260000 0.994315 123.32 0.106449 33.345 0.106449 33.345 0.994315 123.36
8.77262000 0.994315 123.32 0.106450 33.345 0.106450 33.345 0.994315 123.36
8.77264000 0.994314 123.32 0.106451 33.345 0.106451 33.345 0.994314 123.36
8.77266000 0.994314 123.32 0.106452 33.345 0.106452 33.345 0.994314 123.36
8.77268000 0.994314 123.32 0.106453 33.344 0.106453 33.344 0.994314 123.36
8.77270000 0.994314 123.32 0.106454 33.344 0.106454 33.344 0.994314 123.36
8.77272000 0.994314 123.32 0.106455 33.344 0.106455 33.344 0.994314 123.36
8.77274000 0.994314 123.32 0.106456 33.344 0.106456 33.344 0.994314 123.36
8.77276000 0.994314 123.32 0.106458 33.344 0.106458 33.344 0.994314 123.36
8.77278000 0.994314 123.32 0.106459 33.344 0.106459 33.344 0.994314 123.36
8.77280000 0.994313 123.32 0.106460 33.343 0.106460 33.343 0.994313 123.36
8.77282000 0.994313 123.32 0.106461 33.343 0.106461 33.343 0.994313 123.36