! Sonnet Data File
! From: emgraph Version : 16.52
! From Project: Qubit_Xmon2_brg
! Data is De-embedded 
! Data File Written: 10/25/2017 20:12:53
!< HDATE 10/25/2017 15:44:55
!< MDATE 10/25/2017 15:44:55
!< PARAMS
!< Lj = 11.0
!< Gap = 6.0
!< Pwid = 2000.0
!< Airgap = 6.0
!< Width = 10.0
!< Bwid = 20.0
!< Dis1 = 350.0
!< Dis2 = 356.0
!< END PARAMS
# GHZ S MA R 34.70000
8.68500000 0.987217 110.33 0.159331 20.196 0.159331 20.196 0.987216 110.06
!< P1 F=8.685 Eeff=(5.13559215 -5.6621e-5) Z0=(34.6542042 -9.3986e-5) R=0.0 C=0.0 
!< P2 F=8.685 Eeff=(5.13559215 -5.6621e-5) Z0=(34.6542042 -9.3986e-5) R=0.0 C=0.0 
8.68500500 0.987216 110.33 0.159332 20.196 0.159332 20.196 0.987216 110.06
8.68501000 0.987216 110.33 0.159334 20.196 0.159334 20.196 0.987216 110.06
8.68501500 0.987216 110.33 0.159335 20.196 0.159335 20.196 0.987216 110.06
8.68502000 0.987216 110.33 0.159336 20.196 0.159336 20.196 0.987215 110.06
8.68502500 0.987215 110.33 0.159338 20.196 0.159338 20.196 0.987215 110.06
8.68503000 0.987215 110.33 0.159339 20.196 0.159339 20.196 0.987215 110.06
8.68503500 0.987215 110.33 0.159341 20.195 0.159341 20.195 0.987215 110.06
8.68504000 0.987215 110.33 0.159342 20.195 0.159342 20.195 0.987215 110.06
8.68504500 0.987215 110.33 0.159343 20.195 0.159343 20.195 0.987214 110.06
8.68505000 0.987214 110.33 0.159345 20.195 0.159345 20.195 0.987214 110.06
8.68505500 0.987214 110.33 0.159346 20.195 0.159346 20.195 0.987214 110.06
8.68506000 0.987214 110.33 0.159347 20.195 0.159347 20.195 0.987214 110.06
8.68506500 0.987214 110.33 0.159349 20.195 0.159349 20.195 0.987213 110.06
8.68507000 0.987213 110.33 0.159350 20.195 0.159350 20.195 0.987213 110.06
8.68507500 0.987213 110.33 0.159352 20.195 0.159352 20.195 0.987213 110.06
8.68508000 0.987213 110.33 0.159353 20.194 0.159353 20.194 0.987213 110.06
8.68508500 0.987213 110.33 0.159354 20.194 0.159354 20.194 0.987213 110.06
8.68509000 0.987212 110.33 0.159356 20.194 0.159356 20.194 0.987212 110.06
8.68509500 0.987212 110.33 0.159357 20.194 0.159357 20.194 0.987212 110.06
8.68510000 0.987212 110.33 0.159359 20.194 0.159359 20.194 0.987212 110.06
8.68510500 0.987212 110.33 0.159360 20.194 0.159360 20.194 0.987212 110.06
8.68511000 0.987212 110.33 0.159361 20.194 0.159361 20.194 0.987211 110.06
8.68511500 0.987211 110.33 0.159363 20.194 0.159363 20.194 0.987211 110.06
8.68512000 0.987211 110.33 0.159364 20.193 0.159364 20.193 0.987211 110.06
8.68512500 0.987211 110.33 0.159366 20.193 0.159366 20.193 0.987211 110.06
8.68513000 0.987211 110.33 0.159367 20.193 0.159367 20.193 0.987210 110.06
8.68513500 0.987210 110.33 0.159368 20.193 0.159368 20.193 0.987210 110.06
8.68514000 0.987210 110.33 0.159370 20.193 0.159370 20.193 0.987210 110.06
8.68514500 0.987210 110.33 0.159371 20.193 0.159371 20.193 0.987210 110.06
8.68515000 0.987210 110.33 0.159373 20.193 0.159373 20.193 0.987210 110.06
8.68515500 0.987209 110.33 0.159374 20.193 0.159374 20.193 0.987209 110.06
8.68516000 0.987209 110.33 0.159375 20.193 0.159375 20.193 0.987209 110.06
8.68516500 0.987209 110.33 0.159377 20.192 0.159377 20.192 0.987209 110.06
8.68517000 0.987209 110.33 0.159378 20.192 0.159378 20.192 0.987209 110.06
8.68517500 0.987209 110.33 0.159380 20.192 0.159380 20.192 0.987208 110.06
8.68518000 0.987208 110.33 0.159381 20.192 0.159381 20.192 0.987208 110.06
8.68518500 0.987208 110.33 0.159382 20.192 0.159382 20.192 0.987208 110.06
8.68519000 0.987208 110.33 0.159384 20.192 0.159384 20.192 0.987208 110.06
8.68519500 0.987208 110.33 0.159385 20.192 0.159385 20.192 0.987207 110.06
8.68520000 0.987207 110.33 0.159387 20.192 0.159387 20.192 0.987207 110.06
8.68520500 0.987207 110.33 0.159388 20.191 0.159388 20.191 0.987207 110.06
8.68521000 0.987207 110.33 0.159390 20.191 0.159390 20.191 0.987207 110.06
8.68521500 0.987207 110.33 0.159391 20.191 0.159391 20.191 0.987206 110.06
8.68522000 0.987206 110.33 0.159392 20.191 0.159392 20.191 0.987206 110.06
8.68522500 0.987206 110.33 0.159394 20.191 0.159394 20.191 0.987206 110.06
8.68523000 0.987206 110.33 0.159395 20.191 0.159395 20.191 0.987206 110.06
8.68523500 0.987206 110.33 0.159397 20.191 0.159397 20.191 0.987206 110.06
8.68524000 0.987205 110.33 0.159398 20.191 0.159398 20.191 0.987205 110.06
8.68524500 0.987205 110.33 0.159400 20.190 0.159400 20.190 0.987205 110.06
8.68525000 0.987205 110.33 0.159401 20.190 0.159401 20.190 0.987205 110.05
8.68525500 0.987205 110.33 0.159402 20.190 0.159402 20.190 0.987205 110.05
8.68526000 0.987204 110.33 0.159404 20.190 0.159404 20.190 0.987204 110.05
8.68526500 0.987204 110.33 0.159405 20.190 0.159405 20.190 0.987204 110.05
8.68527000 0.987204 110.33 0.159407 20.190 0.159407 20.190 0.987204 110.05
8.68527500 0.987204 110.33 0.159408 20.190 0.159408 20.190 0.987204 110.05
8.68528000 0.987204 110.33 0.159410 20.190 0.159410 20.190 0.987203 110.05
8.68528500 0.987203 110.33 0.159411 20.190 0.159411 20.190 0.987203 110.05
8.68529000 0.987203 110.33 0.159413 20.189 0.159413 20.189 0.987203 110.05
8.68529500 0.987203 110.33 0.159414 20.189 0.159414 20.189 0.987203 110.05
8.68530000 0.987203 110.33 0.159415 20.189 0.159415 20.189 0.987202 110.05
8.68530500 0.987202 110.33 0.159417 20.189 0.159417 20.189 0.987202 110.05
8.68531000 0.987202 110.33 0.159418 20.189 0.159418 20.189 0.987202 110.05
8.68531500 0.987202 110.33 0.159420 20.189 0.159420 20.189 0.987202 110.05
8.68532000 0.987202 110.33 0.159421 20.189 0.159421 20.189 0.987201 110.05
8.68532500 0.987201 110.33 0.159423 20.189 0.159423 20.189 0.987201 110.05
8.68533000 0.987201 110.33 0.159424 20.188 0.159424 20.188 0.987201 110.05
8.68533500 0.987201 110.33 0.159426 20.188 0.159426 20.188 0.987201 110.05
8.68534000 0.987201 110.33 0.159427 20.188 0.159427 20.188 0.987200 110.05
8.68534500 0.987200 110.32 0.159429 20.188 0.159429 20.188 0.987200 110.05
8.68535000 0.987200 110.32 0.159430 20.188 0.159430 20.188 0.987200 110.05
8.68535500 0.987200 110.32 0.159432 20.188 0.159432 20.188 0.987200 110.05
8.68536000 0.987200 110.32 0.159433 20.188 0.159433 20.188 0.987199 110.05
8.68536500 0.987199 110.32 0.159434 20.188 0.159434 20.188 0.987199 110.05
8.68537000 0.987199 110.32 0.159436 20.187 0.159436 20.187 0.987199 110.05
8.68537500 0.987199 110.32 0.159437 20.187 0.159437 20.187 0.987199 110.05
8.68538000 0.987199 110.32 0.159439 20.187 0.159439 20.187 0.987199 110.05
8.68538500 0.987198 110.32 0.159440 20.187 0.159440 20.187 0.987198 110.05
8.68539000 0.987198 110.32 0.159442 20.187 0.159442 20.187 0.987198 110.05
8.68539500 0.987198 110.32 0.159443 20.187 0.159443 20.187 0.987198 110.05
8.68540000 0.987198 110.32 0.159445 20.187 0.159445 20.187 0.987198 110.05
8.68540500 0.987197 110.32 0.159446 20.187 0.159446 20.187 0.987197 110.05
8.68541000 0.987197 110.32 0.159448 20.186 0.159448 20.186 0.987197 110.05
8.68541500 0.987197 110.32 0.159449 20.186 0.159449 20.186 0.987197 110.05
8.68542000 0.987197 110.32 0.159451 20.186 0.159451 20.186 0.987197 110.05
8.68542500 0.987196 110.32 0.159452 20.186 0.159452 20.186 0.987196 110.05
8.68543000 0.987196 110.32 0.159454 20.186 0.159454 20.186 0.987196 110.05
8.68543500 0.987196 110.32 0.159455 20.186 0.159455 20.186 0.987196 110.05
8.68544000 0.987196 110.32 0.159457 20.186 0.159457 20.186 0.987196 110.05
8.68544500 0.987195 110.32 0.159458 20.186 0.159458 20.186 0.987195 110.05
8.68545000 0.987195 110.32 0.159460 20.185 0.159460 20.185 0.987195 110.05
8.68545500 0.987195 110.32 0.159461 20.185 0.159461 20.185 0.987195 110.05
8.68546000 0.987195 110.32 0.159463 20.185 0.159463 20.185 0.987195 110.05
8.68546500 0.987194 110.32 0.159464 20.185 0.159464 20.185 0.987194 110.05
8.68547000 0.987194 110.32 0.159466 20.185 0.159466 20.185 0.987194 110.05
8.68547500 0.987194 110.32 0.159467 20.185 0.159467 20.185 0.987194 110.05
8.68548000 0.987194 110.32 0.159469 20.185 0.159469 20.185 0.987194 110.05
8.68548500 0.987193 110.32 0.159470 20.185 0.159470 20.185 0.987193 110.05
8.68549000 0.987193 110.32 0.159472 20.184 0.159472 20.184 0.987193 110.05
8.68549500 0.987193 110.32 0.159473 20.184 0.159473 20.184 0.987193 110.05
8.68550000 0.987193 110.32 0.159475 20.184 0.159475 20.184 0.987193 110.05
8.68550500 0.987192 110.32 0.159476 20.184 0.159476 20.184 0.987192 110.05
8.68551000 0.987192 110.32 0.159478 20.184 0.159478 20.184 0.987192 110.05
8.68551500 0.987192 110.32 0.159479 20.184 0.159479 20.184 0.987192 110.05
8.68552000 0.987192 110.32 0.159481 20.184 0.159481 20.184 0.987192 110.05
8.68552500 0.987191 110.32 0.159482 20.184 0.159482 20.184 0.987191 110.05
8.68553000 0.987191 110.32 0.159484 20.183 0.159484 20.183 0.987191 110.05
8.68553500 0.987191 110.32 0.159486 20.183 0.159486 20.183 0.987191 110.05
8.68554000 0.987191 110.32 0.159487 20.183 0.159487 20.183 0.987191 110.05
8.68554500 0.987190 110.32 0.159489 20.183 0.159489 20.183 0.987190 110.05
8.68555000 0.987190 110.32 0.159490 20.183 0.159490 20.183 0.987190 110.05
8.68555500 0.987190 110.32 0.159492 20.183 0.159492 20.183 0.987190 110.05
8.68556000 0.987190 110.32 0.159493 20.183 0.159493 20.183 0.987190 110.05
8.68556500 0.987189 110.32 0.159495 20.183 0.159495 20.183 0.987189 110.05
8.68557000 0.987189 110.32 0.159496 20.182 0.159496 20.182 0.987189 110.05
8.68557500 0.987189 110.32 0.159498 20.182 0.159498 20.182 0.987189 110.05
8.68558000 0.987189 110.32 0.159499 20.182 0.159499 20.182 0.987188 110.05
8.68558500 0.987188 110.32 0.159501 20.182 0.159501 20.182 0.987188 110.05
8.68559000 0.987188 110.32 0.159502 20.182 0.159502 20.182 0.987188 110.05
8.68559500 0.987188 110.32 0.159504 20.182 0.159504 20.182 0.987188 110.05
8.68560000 0.987188 110.32 0.159506 20.182 0.159506 20.182 0.987187 110.05
8.68560500 0.987187 110.32 0.159507 20.182 0.159507 20.182 0.987187 110.05
8.68561000 0.987187 110.32 0.159509 20.181 0.159509 20.181 0.987187 110.05
8.68561500 0.987187 110.32 0.159510 20.181 0.159510 20.181 0.987187 110.05
8.68562000 0.987187 110.32 0.159512 20.181 0.159512 20.181 0.987186 110.05
8.68562500 0.987186 110.32 0.159513 20.181 0.159513 20.181 0.987186 110.05
8.68563000 0.987186 110.32 0.159515 20.181 0.159515 20.181 0.987186 110.05
8.68563500 0.987186 110.32 0.159517 20.181 0.159517 20.181 0.987186 110.05
8.68564000 0.987186 110.32 0.159518 20.181 0.159518 20.181 0.987185 110.05
8.68564500 0.987185 110.32 0.159520 20.181 0.159520 20.181 0.987185 110.05
8.68565000 0.987185 110.32 0.159521 20.180 0.159521 20.180 0.987185 110.05
8.68565500 0.987185 110.32 0.159523 20.180 0.159523 20.180 0.987185 110.04
8.68566000 0.987185 110.32 0.159524 20.180 0.159524 20.180 0.987184 110.04
8.68566500 0.987184 110.32 0.159526 20.180 0.159526 20.180 0.987184 110.04
8.68567000 0.987184 110.32 0.159528 20.180 0.159528 20.180 0.987184 110.04
8.68567500 0.987184 110.32 0.159529 20.180 0.159529 20.180 0.987184 110.04
8.68568000 0.987183 110.32 0.159531 20.180 0.159531 20.180 0.987183 110.04
8.68568500 0.987183 110.32 0.159532 20.180 0.159532 20.180 0.987183 110.04
8.68569000 0.987183 110.32 0.159534 20.179 0.159534 20.179 0.987183 110.04
8.68569500 0.987183 110.32 0.159535 20.179 0.159535 20.179 0.987182 110.04
8.68570000 0.987182 110.32 0.159537 20.179 0.159537 20.179 0.987182 110.04
8.68570500 0.987182 110.32 0.159539 20.179 0.159539 20.179 0.987182 110.04
8.68571000 0.987182 110.32 0.159540 20.179 0.159540 20.179 0.987182 110.04
8.68571500 0.987182 110.32 0.159542 20.179 0.159542 20.179 0.987181 110.04
8.68572000 0.987181 110.32 0.159543 20.179 0.159543 20.179 0.987181 110.04
8.68572500 0.987181 110.32 0.159545 20.178 0.159545 20.178 0.987181 110.04
8.68573000 0.987181 110.32 0.159547 20.178 0.159547 20.178 0.987181 110.04
8.68573500 0.987181 110.32 0.159548 20.178 0.159548 20.178 0.987180 110.04
8.68574000 0.987180 110.32 0.159550 20.178 0.159550 20.178 0.987180 110.04
8.68574500 0.987180 110.32 0.159551 20.178 0.159551 20.178 0.987180 110.04
8.68575000 0.987180 110.32 0.159553 20.178 0.159553 20.178 0.987180 110.04
8.68575500 0.987179 110.31 0.159555 20.178 0.159555 20.178 0.987179 110.04
8.68576000 0.987179 110.31 0.159556 20.178 0.159556 20.178 0.987179 110.04
8.68576500 0.987179 110.31 0.159558 20.177 0.159558 20.177 0.987179 110.04
8.68577000 0.987179 110.31 0.159559 20.177 0.159559 20.177 0.987179 110.04
8.68577500 0.987178 110.31 0.159561 20.177 0.159561 20.177 0.987178 110.04
8.68578000 0.987178 110.31 0.159563 20.177 0.159563 20.177 0.987178 110.04
8.68578500 0.987178 110.31 0.159564 20.177 0.159564 20.177 0.987178 110.04
8.68579000 0.987178 110.31 0.159566 20.177 0.159566 20.177 0.987177 110.04
8.68579500 0.987177 110.31 0.159568 20.177 0.159568 20.177 0.987177 110.04
8.68580000 0.987177 110.31 0.159569 20.177 0.159569 20.177 0.987177 110.04
8.68580500 0.987177 110.31 0.159571 20.176 0.159571 20.176 0.987177 110.04
8.68581000 0.987177 110.31 0.159572 20.176 0.159572 20.176 0.987176 110.04
8.68581500 0.987176 110.31 0.159574 20.176 0.159574 20.176 0.987176 110.04
8.68582000 0.987176 110.31 0.159576 20.176 0.159576 20.176 0.987176 110.04
8.68582500 0.987176 110.31 0.159577 20.176 0.159577 20.176 0.987176 110.04
8.68583000 0.987175 110.31 0.159579 20.176 0.159579 20.176 0.987175 110.04
8.68583500 0.987175 110.31 0.159581 20.176 0.159581 20.176 0.987175 110.04
8.68584000 0.987175 110.31 0.159582 20.175 0.159582 20.175 0.987175 110.04
8.68584500 0.987175 110.31 0.159584 20.175 0.159584 20.175 0.987174 110.04
8.68585000 0.987174 110.31 0.159586 20.175 0.159586 20.175 0.987174 110.04
8.68585500 0.987174 110.31 0.159587 20.175 0.159587 20.175 0.987174 110.04
8.68586000 0.987174 110.31 0.159589 20.175 0.159589 20.175 0.987174 110.04
8.68586500 0.987174 110.31 0.159591 20.175 0.159591 20.175 0.987173 110.04
8.68587000 0.987173 110.31 0.159592 20.175 0.159592 20.175 0.987173 110.04
8.68587500 0.987173 110.31 0.159594 20.175 0.159594 20.175 0.987173 110.04
8.68588000 0.987173 110.31 0.159596 20.174 0.159596 20.174 0.987173 110.04
8.68588500 0.987172 110.31 0.159597 20.174 0.159597 20.174 0.987172 110.04
8.68589000 0.987172 110.31 0.159599 20.174 0.159599 20.174 0.987172 110.04
8.68589500 0.987172 110.31 0.159601 20.174 0.159601 20.174 0.987172 110.04
8.68590000 0.987172 110.31 0.159602 20.174 0.159602 20.174 0.987171 110.04
8.68590500 0.987171 110.31 0.159604 20.174 0.159604 20.174 0.987171 110.04
8.68591000 0.987171 110.31 0.159606 20.174 0.159606 20.174 0.987171 110.04
8.68591500 0.987171 110.31 0.159607 20.173 0.159607 20.173 0.987171 110.04
8.68592000 0.987170 110.31 0.159609 20.173 0.159609 20.173 0.987170 110.04
8.68592500 0.987170 110.31 0.159611 20.173 0.159611 20.173 0.987170 110.04
8.68593000 0.987170 110.31 0.159612 20.173 0.159612 20.173 0.987170 110.04
8.68593500 0.987170 110.31 0.159614 20.173 0.159614 20.173 0.987169 110.04
8.68594000 0.987169 110.31 0.159616 20.173 0.159616 20.173 0.987169 110.04
8.68594500 0.987169 110.31 0.159617 20.173 0.159617 20.173 0.987169 110.04
8.68595000 0.987169 110.31 0.159619 20.173 0.159619 20.173 0.987169 110.04
8.68595500 0.987169 110.31 0.159621 20.172 0.159621 20.172 0.987168 110.04
8.68596000 0.987168 110.31 0.159622 20.172 0.159622 20.172 0.987168 110.04
8.68596500 0.987168 110.31 0.159624 20.172 0.159624 20.172 0.987168 110.04
8.68597000 0.987168 110.31 0.159626 20.172 0.159626 20.172 0.987167 110.04
8.68597500 0.987167 110.31 0.159627 20.172 0.159627 20.172 0.987167 110.04
8.68598000 0.987167 110.31 0.159629 20.172 0.159629 20.172 0.987167 110.04
8.68598500 0.987167 110.31 0.159631 20.172 0.159631 20.172 0.987167 110.04
8.68599000 0.987167 110.31 0.159633 20.171 0.159633 20.171 0.987166 110.04
8.68599500 0.987166 110.31 0.159634 20.171 0.159634 20.171 0.987166 110.04
8.68600000 0.987166 110.31 0.159636 20.171 0.159636 20.171 0.987166 110.04
8.68600500 0.987166 110.31 0.159638 20.171 0.159638 20.171 0.987166 110.04
8.68601000 0.987165 110.31 0.159639 20.171 0.159639 20.171 0.987165 110.04
8.68601500 0.987165 110.31 0.159641 20.171 0.159641 20.171 0.987165 110.04
8.68602000 0.987165 110.31 0.159643 20.171 0.159643 20.171 0.987165 110.04
8.68602500 0.987165 110.31 0.159644 20.170 0.159644 20.170 0.987164 110.04
8.68603000 0.987164 110.31 0.159646 20.170 0.159646 20.170 0.987164 110.04
8.68603500 0.987164 110.31 0.159648 20.170 0.159648 20.170 0.987164 110.03
8.68604000 0.987164 110.31 0.159650 20.170 0.159650 20.170 0.987164 110.03
8.68604500 0.987163 110.31 0.159651 20.170 0.159651 20.170 0.987163 110.03
8.68605000 0.987163 110.31 0.159653 20.170 0.159653 20.170 0.987163 110.03
8.68605500 0.987163 110.31 0.159655 20.170 0.159655 20.170 0.987163 110.03
8.68606000 0.987163 110.31 0.159657 20.169 0.159657 20.169 0.987162 110.03
8.68606500 0.987162 110.31 0.159658 20.169 0.159658 20.169 0.987162 110.03
8.68607000 0.987162 110.31 0.159660 20.169 0.159660 20.169 0.987162 110.03
8.68607500 0.987162 110.31 0.159662 20.169 0.159662 20.169 0.987161 110.03
8.68608000 0.987161 110.31 0.159664 20.169 0.159664 20.169 0.987161 110.03
8.68608500 0.987161 110.31 0.159665 20.169 0.159665 20.169 0.987161 110.03
8.68609000 0.987161 110.31 0.159667 20.169 0.159667 20.169 0.987161 110.03
8.68609500 0.987161 110.31 0.159669 20.169 0.159669 20.169 0.987160 110.03
8.68610000 0.987160 110.31 0.159671 20.168 0.159671 20.168 0.987160 110.03
8.68610500 0.987160 110.31 0.159672 20.168 0.159672 20.168 0.987160 110.03
8.68611000 0.987160 110.31 0.159674 20.168 0.159674 20.168 0.987159 110.03
8.68611500 0.987159 110.31 0.159676 20.168 0.159676 20.168 0.987159 110.03
8.68612000 0.987159 110.31 0.159678 20.168 0.159678 20.168 0.987159 110.03
8.68612500 0.987159 110.31 0.159679 20.168 0.159679 20.168 0.987159 110.03
8.68613000 0.987158 110.31 0.159681 20.168 0.159681 20.168 0.987158 110.03
8.68613500 0.987158 110.30 0.159683 20.167 0.159683 20.167 0.987158 110.03
8.68614000 0.987158 110.30 0.159685 20.167 0.159685 20.167 0.987158 110.03
8.68614500 0.987158 110.30 0.159686 20.167 0.159686 20.167 0.987157 110.03
8.68615000 0.987157 110.30 0.159688 20.167 0.159688 20.167 0.987157 110.03
8.68615500 0.987157 110.30 0.159690 20.167 0.159690 20.167 0.987157 110.03
8.68616000 0.987157 110.30 0.159692 20.167 0.159692 20.167 0.987157 110.03
8.68616500 0.987156 110.30 0.159693 20.167 0.159693 20.167 0.987156 110.03
8.68617000 0.987156 110.30 0.159695 20.166 0.159695 20.166 0.987156 110.03
8.68617500 0.987156 110.30 0.159697 20.166 0.159697 20.166 0.987156 110.03
8.68618000 0.987156 110.30 0.159699 20.166 0.159699 20.166 0.987155 110.03
8.68618500 0.987155 110.30 0.159701 20.166 0.159701 20.166 0.987155 110.03
8.68619000 0.987155 110.30 0.159702 20.166 0.159702 20.166 0.987155 110.03
8.68619500 0.987155 110.30 0.159704 20.166 0.159704 20.166 0.987154 110.03
8.68620000 0.987154 110.30 0.159706 20.166 0.159706 20.166 0.987154 110.03
8.68620500 0.987154 110.30 0.159708 20.165 0.159708 20.165 0.987154 110.03
8.68621000 0.987154 110.30 0.159710 20.165 0.159710 20.165 0.987154 110.03
8.68621500 0.987153 110.30 0.159711 20.165 0.159711 20.165 0.987153 110.03
8.68622000 0.987153 110.30 0.159713 20.165 0.159713 20.165 0.987153 110.03
8.68622500 0.987153 110.30 0.159715 20.165 0.159715 20.165 0.987153 110.03
8.68623000 0.987153 110.30 0.159717 20.165 0.159717 20.165 0.987152 110.03
8.68623500 0.987152 110.30 0.159719 20.165 0.159719 20.165 0.987152 110.03
8.68624000 0.987152 110.30 0.159720 20.164 0.159720 20.164 0.987152 110.03
8.68624500 0.987152 110.30 0.159722 20.164 0.159722 20.164 0.987151 110.03
8.68625000 0.987151 110.30 0.159724 20.164 0.159724 20.164 0.987151 110.03
8.68625500 0.987151 110.30 0.159726 20.164 0.159726 20.164 0.987151 110.03
8.68626000 0.987151 110.30 0.159728 20.164 0.159728 20.164 0.987151 110.03
8.68626500 0.987150 110.30 0.159729 20.164 0.159729 20.164 0.987150 110.03
8.68627000 0.987150 110.30 0.159731 20.164 0.159731 20.164 0.987150 110.03
8.68627500 0.987150 110.30 0.159733 20.163 0.159733 20.163 0.987150 110.03
8.68628000 0.987150 110.30 0.159735 20.163 0.159735 20.163 0.987149 110.03
8.68628500 0.987149 110.30 0.159737 20.163 0.159737 20.163 0.987149 110.03
8.68629000 0.987149 110.30 0.159739 20.163 0.159739 20.163 0.987149 110.03
8.68629500 0.987149 110.30 0.159740 20.163 0.159740 20.163 0.987148 110.03
8.68630000 0.987148 110.30 0.159742 20.163 0.159742 20.163 0.987148 110.03
8.68630500 0.987148 110.30 0.159744 20.163 0.159744 20.163 0.987148 110.03
8.68631000 0.987148 110.30 0.159746 20.162 0.159746 20.162 0.987147 110.03
8.68631500 0.987147 110.30 0.159748 20.162 0.159748 20.162 0.987147 110.03
8.68632000 0.987147 110.30 0.159750 20.162 0.159750 20.162 0.987147 110.03
8.68632500 0.987147 110.30 0.159751 20.162 0.159751 20.162 0.987147 110.03
8.68633000 0.987146 110.30 0.159753 20.162 0.159753 20.162 0.987146 110.03
8.68633500 0.987146 110.30 0.159755 20.162 0.159755 20.162 0.987146 110.03
8.68634000 0.987146 110.30 0.159757 20.162 0.159757 20.162 0.987146 110.03
8.68634500 0.987146 110.30 0.159759 20.161 0.159759 20.161 0.987145 110.03
8.68635000 0.987145 110.30 0.159761 20.161 0.159761 20.161 0.987145 110.03
8.68635500 0.987145 110.30 0.159763 20.161 0.159763 20.161 0.987145 110.03
8.68636000 0.987145 110.30 0.159765 20.161 0.159765 20.161 0.987144 110.03
8.68636500 0.987144 110.30 0.159766 20.161 0.159766 20.161 0.987144 110.03
8.68637000 0.987144 110.30 0.159768 20.161 0.159768 20.161 0.987144 110.03
8.68637500 0.987144 110.30 0.159770 20.161 0.159770 20.161 0.987143 110.03
8.68638000 0.987143 110.30 0.159772 20.160 0.159772 20.160 0.987143 110.03
8.68638500 0.987143 110.30 0.159774 20.160 0.159774 20.160 0.987143 110.03
8.68639000 0.987143 110.30 0.159776 20.160 0.159776 20.160 0.987143 110.02
8.68639500 0.987142 110.30 0.159778 20.160 0.159778 20.160 0.987142 110.02
8.68640000 0.987142 110.30 0.159780 20.160 0.159780 20.160 0.987142 110.02
8.68640500 0.987142 110.30 0.159781 20.160 0.159781 20.160 0.987142 110.02
8.68641000 0.987141 110.30 0.159783 20.159 0.159783 20.159 0.987141 110.02
8.68641500 0.987141 110.30 0.159785 20.159 0.159785 20.159 0.987141 110.02
8.68642000 0.987141 110.30 0.159787 20.159 0.159787 20.159 0.987141 110.02
8.68642500 0.987141 110.30 0.159789 20.159 0.159789 20.159 0.987140 110.02
8.68643000 0.987140 110.30 0.159791 20.159 0.159791 20.159 0.987140 110.02
8.68643500 0.987140 110.30 0.159793 20.159 0.159793 20.159 0.987140 110.02
8.68644000 0.987140 110.30 0.159795 20.159 0.159795 20.159 0.987139 110.02
8.68644500 0.987139 110.30 0.159797 20.158 0.159797 20.158 0.987139 110.02
8.68645000 0.987139 110.30 0.159799 20.158 0.159799 20.158 0.987139 110.02
8.68645500 0.987139 110.30 0.159800 20.158 0.159800 20.158 0.987138 110.02
8.68646000 0.987138 110.30 0.159802 20.158 0.159802 20.158 0.987138 110.02
8.68646500 0.987138 110.30 0.159804 20.158 0.159804 20.158 0.987138 110.02
8.68647000 0.987138 110.30 0.159806 20.158 0.159806 20.158 0.987137 110.02
8.68647500 0.987137 110.30 0.159808 20.158 0.159808 20.158 0.987137 110.02
8.68648000 0.987137 110.30 0.159810 20.157 0.159810 20.157 0.987137 110.02
8.68648500 0.987137 110.30 0.159812 20.157 0.159812 20.157 0.987136 110.02
8.68649000 0.987136 110.29 0.159814 20.157 0.159814 20.157 0.987136 110.02
8.68649500 0.987136 110.29 0.159816 20.157 0.159816 20.157 0.987136 110.02
8.68650000 0.987136 110.29 0.159818 20.157 0.159818 20.157 0.987135 110.02
8.68650500 0.987135 110.29 0.159820 20.157 0.159820 20.157 0.987135 110.02
8.68651000 0.987135 110.29 0.159822 20.157 0.159822 20.157 0.987135 110.02
8.68651500 0.987135 110.29 0.159824 20.156 0.159824 20.156 0.987135 110.02
8.68652000 0.987134 110.29 0.159826 20.156 0.159826 20.156 0.987134 110.02
8.68652500 0.987134 110.29 0.159827 20.156 0.159827 20.156 0.987134 110.02
8.68653000 0.987134 110.29 0.159829 20.156 0.159829 20.156 0.987134 110.02
8.68653500 0.987133 110.29 0.159831 20.156 0.159831 20.156 0.987133 110.02
8.68654000 0.987133 110.29 0.159833 20.156 0.159833 20.156 0.987133 110.02
8.68654500 0.987133 110.29 0.159835 20.155 0.159835 20.155 0.987133 110.02
8.68655000 0.987132 110.29 0.159837 20.155 0.159837 20.155 0.987132 110.02
8.68655500 0.987132 110.29 0.159839 20.155 0.159839 20.155 0.987132 110.02
8.68656000 0.987132 110.29 0.159841 20.155 0.159841 20.155 0.987132 110.02
8.68656500 0.987131 110.29 0.159843 20.155 0.159843 20.155 0.987131 110.02
8.68657000 0.987131 110.29 0.159845 20.155 0.159845 20.155 0.987131 110.02
8.68657500 0.987131 110.29 0.159847 20.155 0.159847 20.155 0.987131 110.02
8.68658000 0.987131 110.29 0.159849 20.154 0.159849 20.154 0.987130 110.02
8.68658500 0.987130 110.29 0.159851 20.154 0.159851 20.154 0.987130 110.02
8.68659000 0.987130 110.29 0.159853 20.154 0.159853 20.154 0.987130 110.02
8.68659500 0.987130 110.29 0.159855 20.154 0.159855 20.154 0.987129 110.02
8.68660000 0.987129 110.29 0.159857 20.154 0.159857 20.154 0.987129 110.02
8.68660500 0.987129 110.29 0.159859 20.154 0.159859 20.154 0.987129 110.02
8.68661000 0.987129 110.29 0.159861 20.153 0.159861 20.153 0.987128 110.02
8.68661500 0.987128 110.29 0.159863 20.153 0.159863 20.153 0.987128 110.02
8.68662000 0.987128 110.29 0.159865 20.153 0.159865 20.153 0.987128 110.02
8.68662500 0.987128 110.29 0.159867 20.153 0.159867 20.153 0.987127 110.02
8.68663000 0.987127 110.29 0.159869 20.153 0.159869 20.153 0.987127 110.02
8.68663500 0.987127 110.29 0.159871 20.153 0.159871 20.153 0.987127 110.02
8.68664000 0.987127 110.29 0.159873 20.153 0.159873 20.153 0.987126 110.02
8.68664500 0.987126 110.29 0.159875 20.152 0.159875 20.152 0.987126 110.02
8.68665000 0.987126 110.29 0.159877 20.152 0.159877 20.152 0.987126 110.02
8.68665500 0.987126 110.29 0.159879 20.152 0.159879 20.152 0.987125 110.02
8.68666000 0.987125 110.29 0.159881 20.152 0.159881 20.152 0.987125 110.02
8.68666500 0.987125 110.29 0.159883 20.152 0.159883 20.152 0.987125 110.02
8.68667000 0.987124 110.29 0.159885 20.152 0.159885 20.152 0.987124 110.02
8.68667500 0.987124 110.29 0.159887 20.151 0.159887 20.151 0.987124 110.02
8.68668000 0.987124 110.29 0.159889 20.151 0.159889 20.151 0.987124 110.02
8.68668500 0.987123 110.29 0.159891 20.151 0.159891 20.151 0.987123 110.02
8.68669000 0.987123 110.29 0.159893 20.151 0.159893 20.151 0.987123 110.02
8.68669500 0.987123 110.29 0.159895 20.151 0.159895 20.151 0.987123 110.02
8.68670000 0.987122 110.29 0.159897 20.151 0.159897 20.151 0.987122 110.02
8.68670500 0.987122 110.29 0.159899 20.151 0.159899 20.151 0.987122 110.02
8.68671000 0.987122 110.29 0.159901 20.150 0.159901 20.150 0.987122 110.02
8.68671500 0.987121 110.29 0.159903 20.150 0.159903 20.150 0.987121 110.02
8.68672000 0.987121 110.29 0.159905 20.150 0.159905 20.150 0.987121 110.01
8.68672500 0.987121 110.29 0.159908 20.150 0.159908 20.150 0.987121 110.01
8.68673000 0.987120 110.29 0.159910 20.150 0.159910 20.150 0.987120 110.01
8.68673500 0.987120 110.29 0.159912 20.150 0.159912 20.150 0.987120 110.01
8.68674000 0.987120 110.29 0.159914 20.149 0.159914 20.149 0.987119 110.01
8.68674500 0.987119 110.29 0.159916 20.149 0.159916 20.149 0.987119 110.01
8.68675000 0.987119 110.29 0.159918 20.149 0.159918 20.149 0.987119 110.01
8.68675500 0.987119 110.29 0.159920 20.149 0.159920 20.149 0.987118 110.01
8.68676000 0.987118 110.29 0.159922 20.149 0.159922 20.149 0.987118 110.01
8.68676500 0.987118 110.29 0.159924 20.149 0.159924 20.149 0.987118 110.01
8.68677000 0.987118 110.29 0.159926 20.148 0.159926 20.148 0.987117 110.01
8.68677500 0.987117 110.29 0.159928 20.148 0.159928 20.148 0.987117 110.01
8.68678000 0.987117 110.29 0.159930 20.148 0.159930 20.148 0.987117 110.01
8.68678500 0.987117 110.29 0.159932 20.148 0.159932 20.148 0.987116 110.01
8.68679000 0.987116 110.29 0.159934 20.148 0.159934 20.148 0.987116 110.01
8.68679500 0.987116 110.29 0.159937 20.148 0.159937 20.148 0.987116 110.01
8.68680000 0.987116 110.29 0.159939 20.147 0.159939 20.147 0.987115 110.01
8.68680500 0.987115 110.29 0.159941 20.147 0.159941 20.147 0.987115 110.01
8.68681000 0.987115 110.29 0.159943 20.147 0.159943 20.147 0.987115 110.01
8.68681500 0.987114 110.29 0.159945 20.147 0.159945 20.147 0.987114 110.01
8.68682000 0.987114 110.29 0.159947 20.147 0.159947 20.147 0.987114 110.01
8.68682500 0.987114 110.28 0.159949 20.147 0.159949 20.147 0.987114 110.01
8.68683000 0.987113 110.28 0.159951 20.147 0.159951 20.147 0.987113 110.01
8.68683500 0.987113 110.28 0.159953 20.146 0.159953 20.146 0.987113 110.01
8.68684000 0.987113 110.28 0.159956 20.146 0.159956 20.146 0.987112 110.01
8.68684500 0.987112 110.28 0.159958 20.146 0.159958 20.146 0.987112 110.01
8.68685000 0.987112 110.28 0.159960 20.146 0.159960 20.146 0.987112 110.01
8.68685500 0.987112 110.28 0.159962 20.146 0.159962 20.146 0.987111 110.01
8.68686000 0.987111 110.28 0.159964 20.146 0.159964 20.146 0.987111 110.01
8.68686500 0.987111 110.28 0.159966 20.145 0.159966 20.145 0.987111 110.01
8.68687000 0.987111 110.28 0.159968 20.145 0.159968 20.145 0.987110 110.01
8.68687500 0.987110 110.28 0.159970 20.145 0.159970 20.145 0.987110 110.01
8.68688000 0.987110 110.28 0.159973 20.145 0.159973 20.145 0.987110 110.01
8.68688500 0.987110 110.28 0.159975 20.145 0.159975 20.145 0.987109 110.01
8.68689000 0.987109 110.28 0.159977 20.145 0.159977 20.145 0.987109 110.01
8.68689500 0.987109 110.28 0.159979 20.144 0.159979 20.144 0.987109 110.01
8.68690000 0.987108 110.28 0.159981 20.144 0.159981 20.144 0.987108 110.01
8.68690500 0.987108 110.28 0.159983 20.144 0.159983 20.144 0.987108 110.01
8.68691000 0.987108 110.28 0.159986 20.144 0.159986 20.144 0.987107 110.01
8.68691500 0.987107 110.28 0.159988 20.144 0.159988 20.144 0.987107 110.01
8.68692000 0.987107 110.28 0.159990 20.144 0.159990 20.144 0.987107 110.01
8.68692500 0.987107 110.28 0.159992 20.143 0.159992 20.143 0.987106 110.01
8.68693000 0.987106 110.28 0.159994 20.143 0.159994 20.143 0.987106 110.01
8.68693500 0.987106 110.28 0.159996 20.143 0.159996 20.143 0.987106 110.01
8.68694000 0.987106 110.28 0.159999 20.143 0.159999 20.143 0.987105 110.01
8.68694500 0.987105 110.28 0.160001 20.143 0.160001 20.143 0.987105 110.01
8.68695000 0.987105 110.28 0.160003 20.143 0.160003 20.143 0.987105 110.01
8.68695500 0.987104 110.28 0.160005 20.142 0.160005 20.142 0.987104 110.01