! Sonnet Data File
! From: emgraph Version : 16.52
! From Emgraph Data: Qubit_Xmon2_brg
! Data File Written: 10/24/2017 15:06:57
!< HDATE 10/24/2017 14:45:14
!< MDATE 10/24/2017 14:45:14
!< PARAMS
!< Lj = 11.0
!< Gap = 6.0
!< Pwid = 2000.0
!< Width = 10.0
!< Bwid = 28.0
!< Dis1 = 124.0
!< END PARAMS
# GHZ S MA R 34.70000
8.68500000 0.975305 99.678 0.220800 9.5825 0.220800 9.5825 0.975305 99.490
!< P1 F=8.685 Eeff=(5.13559215 -5.6621e-5) Z0=(34.6542042 -9.3986e-5) R=0.0 C=0.0 
!< P2 F=8.685 Eeff=(5.13559215 -5.6621e-5) Z0=(34.6542042 -9.3986e-5) R=0.0 C=0.0 
8.68500500 0.975305 99.678 0.220802 9.5824 0.220802 9.5824 0.975305 99.489
8.68501000 0.975304 99.678 0.220805 9.5822 0.220805 9.5822 0.975304 99.489
8.68501500 0.975303 99.678 0.220807 9.5820 0.220807 9.5820 0.975303 99.489
8.68502000 0.975303 99.678 0.220810 9.5818 0.220810 9.5818 0.975303 99.489
8.68502500 0.975302 99.677 0.220812 9.5816 0.220812 9.5816 0.975302 99.489
8.68503000 0.975302 99.677 0.220815 9.5814 0.220815 9.5814 0.975302 99.488
8.68503500 0.975301 99.677 0.220817 9.5812 0.220817 9.5812 0.975301 99.488
8.68504000 0.975301 99.677 0.220820 9.5811 0.220820 9.5811 0.975301 99.488
8.68504500 0.975300 99.677 0.220822 9.5809 0.220822 9.5809 0.975300 99.488
8.68505000 0.975299 99.676 0.220825 9.5807 0.220825 9.5807 0.975299 99.488
8.68505500 0.975299 99.676 0.220827 9.5805 0.220827 9.5805 0.975299 99.488
8.68506000 0.975298 99.676 0.220829 9.5803 0.220829 9.5803 0.975298 99.487
8.68506500 0.975298 99.676 0.220832 9.5801 0.220832 9.5801 0.975298 99.487
8.68507000 0.975297 99.676 0.220834 9.5799 0.220834 9.5799 0.975297 99.487
8.68507500 0.975297 99.676 0.220837 9.5797 0.220837 9.5797 0.975297 99.487
8.68508000 0.975296 99.675 0.220839 9.5796 0.220839 9.5796 0.975296 99.487
8.68508500 0.975295 99.675 0.220842 9.5794 0.220842 9.5794 0.975295 99.486
8.68509000 0.975295 99.675 0.220844 9.5792 0.220844 9.5792 0.975295 99.486
8.68509500 0.975294 99.675 0.220847 9.5790 0.220847 9.5790 0.975294 99.486
8.68510000 0.975294 99.675 0.220849 9.5788 0.220849 9.5788 0.975294 99.486
8.68510500 0.975293 99.674 0.220852 9.5786 0.220852 9.5786 0.975293 99.486
8.68511000 0.975293 99.674 0.220854 9.5784 0.220854 9.5784 0.975292 99.485
8.68511500 0.975292 99.674 0.220857 9.5782 0.220857 9.5782 0.975292 99.485
8.68512000 0.975291 99.674 0.220859 9.5780 0.220859 9.5780 0.975291 99.485
8.68512500 0.975291 99.674 0.220862 9.5779 0.220862 9.5779 0.975291 99.485
8.68513000 0.975290 99.673 0.220864 9.5777 0.220864 9.5777 0.975290 99.485
8.68513500 0.975290 99.673 0.220867 9.5775 0.220867 9.5775 0.975290 99.485
8.68514000 0.975289 99.673 0.220870 9.5773 0.220870 9.5773 0.975289 99.484
8.68514500 0.975288 99.673 0.220872 9.5771 0.220872 9.5771 0.975288 99.484
8.68515000 0.975288 99.673 0.220875 9.5769 0.220875 9.5769 0.975288 99.484
8.68515500 0.975287 99.673 0.220877 9.5767 0.220877 9.5767 0.975287 99.484
8.68516000 0.975287 99.672 0.220880 9.5765 0.220880 9.5765 0.975287 99.484
8.68516500 0.975286 99.672 0.220882 9.5763 0.220882 9.5763 0.975286 99.483
8.68517000 0.975286 99.672 0.220885 9.5761 0.220885 9.5761 0.975285 99.483
8.68517500 0.975285 99.672 0.220887 9.5759 0.220887 9.5759 0.975285 99.483
8.68518000 0.975284 99.672 0.220890 9.5758 0.220890 9.5758 0.975284 99.483
8.68518500 0.975284 99.671 0.220892 9.5756 0.220892 9.5756 0.975284 99.483
8.68519000 0.975283 99.671 0.220895 9.5754 0.220895 9.5754 0.975283 99.482
8.68519500 0.975283 99.671 0.220898 9.5752 0.220898 9.5752 0.975283 99.482
8.68520000 0.975282 99.671 0.220900 9.5750 0.220900 9.5750 0.975282 99.482
8.68520500 0.975281 99.671 0.220903 9.5748 0.220903 9.5748 0.975281 99.482
8.68521000 0.975281 99.670 0.220905 9.5746 0.220905 9.5746 0.975281 99.482
8.68521500 0.975280 99.670 0.220908 9.5744 0.220908 9.5744 0.975280 99.482
8.68522000 0.975280 99.670 0.220910 9.5742 0.220910 9.5742 0.975280 99.481
8.68522500 0.975279 99.670 0.220913 9.5740 0.220913 9.5740 0.975279 99.481
8.68523000 0.975278 99.670 0.220916 9.5738 0.220916 9.5738 0.975278 99.481
8.68523500 0.975278 99.669 0.220918 9.5736 0.220918 9.5736 0.975278 99.481
8.68524000 0.975277 99.669 0.220921 9.5734 0.220921 9.5734 0.975277 99.481
8.68524500 0.975277 99.669 0.220923 9.5732 0.220923 9.5732 0.975277 99.480
8.68525000 0.975276 99.669 0.220926 9.5731 0.220926 9.5731 0.975276 99.480
8.68525500 0.975275 99.669 0.220929 9.5729 0.220929 9.5729 0.975275 99.480
8.68526000 0.975275 99.669 0.220931 9.5727 0.220931 9.5727 0.975275 99.480
8.68526500 0.975274 99.668 0.220934 9.5725 0.220934 9.5725 0.975274 99.480
8.68527000 0.975274 99.668 0.220936 9.5723 0.220936 9.5723 0.975274 99.479
8.68527500 0.975273 99.668 0.220939 9.5721 0.220939 9.5721 0.975273 99.479
8.68528000 0.975272 99.668 0.220942 9.5719 0.220942 9.5719 0.975272 99.479
8.68528500 0.975272 99.668 0.220944 9.5717 0.220944 9.5717 0.975272 99.479
8.68529000 0.975271 99.667 0.220947 9.5715 0.220947 9.5715 0.975271 99.479
8.68529500 0.975271 99.667 0.220949 9.5713 0.220949 9.5713 0.975271 99.478
8.68530000 0.975270 99.667 0.220952 9.5711 0.220952 9.5711 0.975270 99.478
8.68530500 0.975269 99.667 0.220955 9.5709 0.220955 9.5709 0.975269 99.478
8.68531000 0.975269 99.667 0.220957 9.5707 0.220957 9.5707 0.975269 99.478
8.68531500 0.975268 99.666 0.220960 9.5705 0.220960 9.5705 0.975268 99.478
8.68532000 0.975268 99.666 0.220963 9.5703 0.220963 9.5703 0.975268 99.477
8.68532500 0.975267 99.666 0.220965 9.5701 0.220965 9.5701 0.975267 99.477
8.68533000 0.975266 99.666 0.220968 9.5699 0.220968 9.5699 0.975266 99.477
8.68533500 0.975266 99.666 0.220970 9.5697 0.220970 9.5697 0.975266 99.477
8.68534000 0.975265 99.665 0.220973 9.5695 0.220973 9.5695 0.975265 99.477
8.68534500 0.975265 99.665 0.220976 9.5693 0.220976 9.5693 0.975264 99.476
8.68535000 0.975264 99.665 0.220978 9.5691 0.220978 9.5691 0.975264 99.476
8.68535500 0.975263 99.665 0.220981 9.5689 0.220981 9.5689 0.975263 99.476
8.68536000 0.975263 99.665 0.220984 9.5687 0.220984 9.5687 0.975263 99.476
8.68536500 0.975262 99.664 0.220986 9.5685 0.220986 9.5685 0.975262 99.476
8.68537000 0.975261 99.664 0.220989 9.5683 0.220989 9.5683 0.975261 99.476
8.68537500 0.975261 99.664 0.220992 9.5681 0.220992 9.5681 0.975261 99.475
8.68538000 0.975260 99.664 0.220994 9.5679 0.220994 9.5679 0.975260 99.475
8.68538500 0.975260 99.664 0.220997 9.5677 0.220997 9.5677 0.975260 99.475
8.68539000 0.975259 99.664 0.221000 9.5675 0.221000 9.5675 0.975259 99.475
8.68539500 0.975258 99.663 0.221002 9.5673 0.221002 9.5673 0.975258 99.475
8.68540000 0.975258 99.663 0.221005 9.5671 0.221005 9.5671 0.975258 99.474
8.68540500 0.975257 99.663 0.221008 9.5669 0.221008 9.5669 0.975257 99.474
8.68541000 0.975256 99.663 0.221011 9.5667 0.221011 9.5667 0.975256 99.474
8.68541500 0.975256 99.663 0.221013 9.5665 0.221013 9.5665 0.975256 99.474
8.68542000 0.975255 99.662 0.221016 9.5663 0.221016 9.5663 0.975255 99.474
8.68542500 0.975255 99.662 0.221019 9.5661 0.221019 9.5661 0.975255 99.473
8.68543000 0.975254 99.662 0.221021 9.5659 0.221021 9.5659 0.975254 99.473
8.68543500 0.975253 99.662 0.221024 9.5657 0.221024 9.5657 0.975253 99.473
8.68544000 0.975253 99.662 0.221027 9.5655 0.221027 9.5655 0.975253 99.473
8.68544500 0.975252 99.661 0.221030 9.5653 0.221030 9.5653 0.975252 99.473
8.68545000 0.975251 99.661 0.221032 9.5651 0.221032 9.5651 0.975251 99.472
8.68545500 0.975251 99.661 0.221035 9.5649 0.221035 9.5649 0.975251 99.472
8.68546000 0.975250 99.661 0.221038 9.5647 0.221038 9.5647 0.975250 99.472
8.68546500 0.975250 99.661 0.221040 9.5645 0.221040 9.5645 0.975249 99.472
8.68547000 0.975249 99.660 0.221043 9.5643 0.221043 9.5643 0.975249 99.472
8.68547500 0.975248 99.660 0.221046 9.5641 0.221046 9.5641 0.975248 99.471
8.68548000 0.975248 99.660 0.221049 9.5639 0.221049 9.5639 0.975248 99.471
8.68548500 0.975247 99.660 0.221051 9.5637 0.221051 9.5637 0.975247 99.471
8.68549000 0.975246 99.660 0.221054 9.5635 0.221054 9.5635 0.975246 99.471
8.68549500 0.975246 99.659 0.221057 9.5633 0.221057 9.5633 0.975246 99.471
8.68550000 0.975245 99.659 0.221060 9.5631 0.221060 9.5631 0.975245 99.470
8.68550500 0.975244 99.659 0.221062 9.5629 0.221062 9.5629 0.975244 99.470
8.68551000 0.975244 99.659 0.221065 9.5627 0.221065 9.5627 0.975244 99.470
8.68551500 0.975243 99.659 0.221068 9.5625 0.221068 9.5625 0.975243 99.470
8.68552000 0.975243 99.658 0.221071 9.5623 0.221071 9.5623 0.975242 99.470
8.68552500 0.975242 99.658 0.221073 9.5621 0.221073 9.5621 0.975242 99.469
8.68553000 0.975241 99.658 0.221076 9.5619 0.221076 9.5619 0.975241 99.469
8.68553500 0.975241 99.658 0.221079 9.5617 0.221079 9.5617 0.975241 99.469
8.68554000 0.975240 99.658 0.221082 9.5614 0.221082 9.5614 0.975240 99.469
8.68554500 0.975239 99.657 0.221085 9.5612 0.221085 9.5612 0.975239 99.469
8.68555000 0.975239 99.657 0.221087 9.5610 0.221087 9.5610 0.975239 99.468
8.68555500 0.975238 99.657 0.221090 9.5608 0.221090 9.5608 0.975238 99.468
8.68556000 0.975237 99.657 0.221093 9.5606 0.221093 9.5606 0.975237 99.468
8.68556500 0.975237 99.657 0.221096 9.5604 0.221096 9.5604 0.975237 99.468
8.68557000 0.975236 99.656 0.221099 9.5602 0.221099 9.5602 0.975236 99.468
8.68557500 0.975235 99.656 0.221101 9.5600 0.221101 9.5600 0.975235 99.467
8.68558000 0.975235 99.656 0.221104 9.5598 0.221104 9.5598 0.975235 99.467
8.68558500 0.975234 99.656 0.221107 9.5596 0.221107 9.5596 0.975234 99.467
8.68559000 0.975233 99.655 0.221110 9.5594 0.221110 9.5594 0.975233 99.467
8.68559500 0.975233 99.655 0.221113 9.5592 0.221113 9.5592 0.975233 99.466
8.68560000 0.975232 99.655 0.221115 9.5590 0.221115 9.5590 0.975232 99.466
8.68560500 0.975232 99.655 0.221118 9.5588 0.221118 9.5588 0.975231 99.466
8.68561000 0.975231 99.655 0.221121 9.5585 0.221121 9.5585 0.975231 99.466
8.68561500 0.975230 99.654 0.221124 9.5583 0.221124 9.5583 0.975230 99.466
8.68562000 0.975230 99.654 0.221127 9.5581 0.221127 9.5581 0.975229 99.465
8.68562500 0.975229 99.654 0.221130 9.5579 0.221130 9.5579 0.975229 99.465
8.68563000 0.975228 99.654 0.221133 9.5577 0.221133 9.5577 0.975228 99.465
8.68563500 0.975228 99.654 0.221135 9.5575 0.221135 9.5575 0.975228 99.465
8.68564000 0.975227 99.653 0.221138 9.5573 0.221138 9.5573 0.975227 99.465
8.68564500 0.975226 99.653 0.221141 9.5571 0.221141 9.5571 0.975226 99.464
8.68565000 0.975226 99.653 0.221144 9.5569 0.221144 9.5569 0.975226 99.464
8.68565500 0.975225 99.653 0.221147 9.5567 0.221147 9.5567 0.975225 99.464
8.68566000 0.975224 99.653 0.221150 9.5564 0.221150 9.5564 0.975224 99.464
8.68566500 0.975224 99.652 0.221153 9.5562 0.221153 9.5562 0.975224 99.464
8.68567000 0.975223 99.652 0.221155 9.5560 0.221155 9.5560 0.975223 99.463
8.68567500 0.975222 99.652 0.221158 9.5558 0.221158 9.5558 0.975222 99.463
8.68568000 0.975222 99.652 0.221161 9.5556 0.221161 9.5556 0.975222 99.463
8.68568500 0.975221 99.652 0.221164 9.5554 0.221164 9.5554 0.975221 99.463
8.68569000 0.975220 99.651 0.221167 9.5552 0.221167 9.5552 0.975220 99.463
8.68569500 0.975220 99.651 0.221170 9.5550 0.221170 9.5550 0.975220 99.462
8.68570000 0.975219 99.651 0.221173 9.5547 0.221173 9.5547 0.975219 99.462
8.68570500 0.975218 99.651 0.221176 9.5545 0.221176 9.5545 0.975218 99.462
8.68571000 0.975218 99.651 0.221179 9.5543 0.221179 9.5543 0.975218 99.462
8.68571500 0.975217 99.650 0.221181 9.5541 0.221181 9.5541 0.975217 99.462
8.68572000 0.975216 99.650 0.221184 9.5539 0.221184 9.5539 0.975216 99.461
8.68572500 0.975216 99.650 0.221187 9.5537 0.221187 9.5537 0.975215 99.461
8.68573000 0.975215 99.650 0.221190 9.5535 0.221190 9.5535 0.975215 99.461
8.68573500 0.975214 99.649 0.221193 9.5533 0.221193 9.5533 0.975214 99.461
8.68574000 0.975214 99.649 0.221196 9.5530 0.221196 9.5530 0.975213 99.460
8.68574500 0.975213 99.649 0.221199 9.5528 0.221199 9.5528 0.975213 99.460
8.68575000 0.975212 99.649 0.221202 9.5526 0.221202 9.5526 0.975212 99.460
8.68575500 0.975211 99.649 0.221205 9.5524 0.221205 9.5524 0.975211 99.460
8.68576000 0.975211 99.648 0.221208 9.5522 0.221208 9.5522 0.975211 99.460
8.68576500 0.975210 99.648 0.221211 9.5520 0.221211 9.5520 0.975210 99.459
8.68577000 0.975209 99.648 0.221214 9.5517 0.221214 9.5517 0.975209 99.459
8.68577500 0.975209 99.648 0.221217 9.5515 0.221217 9.5515 0.975209 99.459
8.68578000 0.975208 99.648 0.221220 9.5513 0.221220 9.5513 0.975208 99.459
8.68578500 0.975207 99.647 0.221223 9.5511 0.221223 9.5511 0.975207 99.459
8.68579000 0.975207 99.647 0.221226 9.5509 0.221226 9.5509 0.975207 99.458
8.68579500 0.975206 99.647 0.221228 9.5507 0.221228 9.5507 0.975206 99.458
8.68580000 0.975205 99.647 0.221231 9.5504 0.221231 9.5504 0.975205 99.458
8.68580500 0.975205 99.647 0.221234 9.5502 0.221234 9.5502 0.975205 99.458
8.68581000 0.975204 99.646 0.221237 9.5500 0.221237 9.5500 0.975204 99.457
8.68581500 0.975203 99.646 0.221240 9.5498 0.221240 9.5498 0.975203 99.457
8.68582000 0.975203 99.646 0.221243 9.5496 0.221243 9.5496 0.975202 99.457
8.68582500 0.975202 99.646 0.221246 9.5494 0.221246 9.5494 0.975202 99.457
8.68583000 0.975201 99.645 0.221249 9.5491 0.221249 9.5491 0.975201 99.457
8.68583500 0.975200 99.645 0.221252 9.5489 0.221252 9.5489 0.975200 99.456
8.68584000 0.975200 99.645 0.221255 9.5487 0.221255 9.5487 0.975200 99.456
8.68584500 0.975199 99.645 0.221258 9.5485 0.221258 9.5485 0.975199 99.456
8.68585000 0.975198 99.645 0.221261 9.5483 0.221261 9.5483 0.975198 99.456
8.68585500 0.975198 99.644 0.221264 9.5480 0.221264 9.5480 0.975198 99.456
8.68586000 0.975197 99.644 0.221267 9.5478 0.221267 9.5478 0.975197 99.455
8.68586500 0.975196 99.644 0.221270 9.5476 0.221270 9.5476 0.975196 99.455
8.68587000 0.975196 99.644 0.221273 9.5474 0.221273 9.5474 0.975195 99.455
8.68587500 0.975195 99.644 0.221277 9.5472 0.221277 9.5472 0.975195 99.455
8.68588000 0.975194 99.643 0.221280 9.5469 0.221280 9.5469 0.975194 99.454
8.68588500 0.975193 99.643 0.221283 9.5467 0.221283 9.5467 0.975193 99.454
8.68589000 0.975193 99.643 0.221286 9.5465 0.221286 9.5465 0.975193 99.454
8.68589500 0.975192 99.643 0.221289 9.5463 0.221289 9.5463 0.975192 99.454
8.68590000 0.975191 99.642 0.221292 9.5460 0.221292 9.5460 0.975191 99.454
8.68590500 0.975191 99.642 0.221295 9.5458 0.221295 9.5458 0.975191 99.453
8.68591000 0.975190 99.642 0.221298 9.5456 0.221298 9.5456 0.975190 99.453
8.68591500 0.975189 99.642 0.221301 9.5454 0.221301 9.5454 0.975189 99.453
8.68592000 0.975188 99.642 0.221304 9.5452 0.221304 9.5452 0.975188 99.453
8.68592500 0.975188 99.641 0.221307 9.5449 0.221307 9.5449 0.975188 99.452
8.68593000 0.975187 99.641 0.221310 9.5447 0.221310 9.5447 0.975187 99.452
8.68593500 0.975186 99.641 0.221313 9.5445 0.221313 9.5445 0.975186 99.452
8.68594000 0.975186 99.641 0.221316 9.5443 0.221316 9.5443 0.975186 99.452
8.68594500 0.975185 99.640 0.221319 9.5440 0.221319 9.5440 0.975185 99.452
8.68595000 0.975184 99.640 0.221322 9.5438 0.221322 9.5438 0.975184 99.451
8.68595500 0.975183 99.640 0.221326 9.5436 0.221326 9.5436 0.975183 99.451
8.68596000 0.975183 99.640 0.221329 9.5434 0.221329 9.5434 0.975183 99.451
8.68596500 0.975182 99.640 0.221332 9.5431 0.221332 9.5431 0.975182 99.451
8.68597000 0.975181 99.639 0.221335 9.5429 0.221335 9.5429 0.975181 99.450
8.68597500 0.975181 99.639 0.221338 9.5427 0.221338 9.5427 0.975181 99.450
8.68598000 0.975180 99.639 0.221341 9.5425 0.221341 9.5425 0.975180 99.450
8.68598500 0.975179 99.639 0.221344 9.5422 0.221344 9.5422 0.975179 99.450
8.68599000 0.975178 99.638 0.221347 9.5420 0.221347 9.5420 0.975178 99.450
8.68599500 0.975178 99.638 0.221350 9.5418 0.221350 9.5418 0.975178 99.449
8.68600000 0.975177 99.638 0.221354 9.5416 0.221354 9.5416 0.975177 99.449
8.68600500 0.975176 99.638 0.221357 9.5413 0.221357 9.5413 0.975176 99.449
8.68601000 0.975176 99.638 0.221360 9.5411 0.221360 9.5411 0.975175 99.449
8.68601500 0.975175 99.637 0.221363 9.5409 0.221363 9.5409 0.975175 99.448
8.68602000 0.975174 99.637 0.221366 9.5406 0.221366 9.5406 0.975174 99.448
8.68602500 0.975173 99.637 0.221369 9.5404 0.221369 9.5404 0.975173 99.448
8.68603000 0.975173 99.637 0.221372 9.5402 0.221372 9.5402 0.975173 99.448
8.68603500 0.975172 99.636 0.221376 9.5400 0.221376 9.5400 0.975172 99.448
8.68604000 0.975171 99.636 0.221379 9.5397 0.221379 9.5397 0.975171 99.447
8.68604500 0.975170 99.636 0.221382 9.5395 0.221382 9.5395 0.975170 99.447
8.68605000 0.975170 99.636 0.221385 9.5393 0.221385 9.5393 0.975170 99.447
8.68605500 0.975169 99.636 0.221388 9.5390 0.221388 9.5390 0.975169 99.447
8.68606000 0.975168 99.635 0.221391 9.5388 0.221391 9.5388 0.975168 99.446
8.68606500 0.975167 99.635 0.221395 9.5386 0.221395 9.5386 0.975167 99.446
8.68607000 0.975167 99.635 0.221398 9.5384 0.221398 9.5384 0.975167 99.446
8.68607500 0.975166 99.635 0.221401 9.5381 0.221401 9.5381 0.975166 99.446
8.68608000 0.975165 99.634 0.221404 9.5379 0.221404 9.5379 0.975165 99.446
8.68608500 0.975164 99.634 0.221407 9.5377 0.221407 9.5377 0.975164 99.445
8.68609000 0.975164 99.634 0.221411 9.5374 0.221411 9.5374 0.975164 99.445
8.68609500 0.975163 99.634 0.221414 9.5372 0.221414 9.5372 0.975163 99.445
8.68610000 0.975162 99.634 0.221417 9.5370 0.221417 9.5370 0.975162 99.445
8.68610500 0.975161 99.633 0.221420 9.5367 0.221420 9.5367 0.975161 99.444
8.68611000 0.975161 99.633 0.221424 9.5365 0.221424 9.5365 0.975161 99.444
8.68611500 0.975160 99.633 0.221427 9.5363 0.221427 9.5363 0.975160 99.444
8.68612000 0.975159 99.633 0.221430 9.5360 0.221430 9.5360 0.975159 99.444
8.68612500 0.975158 99.632 0.221433 9.5358 0.221433 9.5358 0.975158 99.443
8.68613000 0.975158 99.632 0.221436 9.5356 0.221436 9.5356 0.975158 99.443
8.68613500 0.975157 99.632 0.221440 9.5353 0.221440 9.5353 0.975157 99.443
8.68614000 0.975156 99.632 0.221443 9.5351 0.221443 9.5351 0.975156 99.443
8.68614500 0.975155 99.631 0.221446 9.5349 0.221446 9.5349 0.975155 99.443
8.68615000 0.975155 99.631 0.221449 9.5346 0.221449 9.5346 0.975155 99.442
8.68615500 0.975154 99.631 0.221453 9.5344 0.221453 9.5344 0.975154 99.442
8.68616000 0.975153 99.631 0.221456 9.5342 0.221456 9.5342 0.975153 99.442
8.68616500 0.975152 99.631 0.221459 9.5339 0.221459 9.5339 0.975152 99.442
8.68617000 0.975152 99.630 0.221463 9.5337 0.221463 9.5337 0.975152 99.441
8.68617500 0.975151 99.630 0.221466 9.5335 0.221466 9.5335 0.975151 99.441
8.68618000 0.975150 99.630 0.221469 9.5332 0.221469 9.5332 0.975150 99.441
8.68618500 0.975149 99.630 0.221472 9.5330 0.221472 9.5330 0.975149 99.441
8.68619000 0.975149 99.629 0.221476 9.5327 0.221476 9.5327 0.975149 99.440
8.68619500 0.975148 99.629 0.221479 9.5325 0.221479 9.5325 0.975148 99.440
8.68620000 0.975147 99.629 0.221482 9.5323 0.221482 9.5323 0.975147 99.440
8.68620500 0.975146 99.629 0.221486 9.5320 0.221486 9.5320 0.975146 99.440
8.68621000 0.975146 99.628 0.221489 9.5318 0.221489 9.5318 0.975145 99.440
8.68621500 0.975145 99.628 0.221492 9.5316 0.221492 9.5316 0.975145 99.439
8.68622000 0.975144 99.628 0.221496 9.5313 0.221496 9.5313 0.975144 99.439
8.68622500 0.975143 99.628 0.221499 9.5311 0.221499 9.5311 0.975143 99.439
8.68623000 0.975142 99.628 0.221502 9.5308 0.221502 9.5308 0.975142 99.439
8.68623500 0.975142 99.627 0.221506 9.5306 0.221506 9.5306 0.975142 99.438
8.68624000 0.975141 99.627 0.221509 9.5304 0.221509 9.5304 0.975141 99.438
8.68624500 0.975140 99.627 0.221512 9.5301 0.221512 9.5301 0.975140 99.438
8.68625000 0.975139 99.627 0.221516 9.5299 0.221516 9.5299 0.975139 99.438
8.68625500 0.975139 99.626 0.221519 9.5296 0.221519 9.5296 0.975138 99.437
8.68626000 0.975138 99.626 0.221522 9.5294 0.221522 9.5294 0.975138 99.437
8.68626500 0.975137 99.626 0.221526 9.5292 0.221526 9.5292 0.975137 99.437
8.68627000 0.975136 99.626 0.221529 9.5289 0.221529 9.5289 0.975136 99.437
8.68627500 0.975135 99.625 0.221532 9.5287 0.221532 9.5287 0.975135 99.436
8.68628000 0.975135 99.625 0.221536 9.5284 0.221536 9.5284 0.975135 99.436
8.68628500 0.975134 99.625 0.221539 9.5282 0.221539 9.5282 0.975134 99.436
8.68629000 0.975133 99.625 0.221543 9.5279 0.221543 9.5279 0.975133 99.436
8.68629500 0.975132 99.624 0.221546 9.5277 0.221546 9.5277 0.975132 99.436
8.68630000 0.975131 99.624 0.221549 9.5275 0.221549 9.5275 0.975131 99.435
8.68630500 0.975131 99.624 0.221553 9.5272 0.221553 9.5272 0.975131 99.435
8.68631000 0.975130 99.624 0.221556 9.5270 0.221556 9.5270 0.975130 99.435
8.68631500 0.975129 99.623 0.221560 9.5267 0.221560 9.5267 0.975129 99.435
8.68632000 0.975128 99.623 0.221563 9.5265 0.221563 9.5265 0.975128 99.434
8.68632500 0.975128 99.623 0.221566 9.5262 0.221566 9.5262 0.975127 99.434
8.68633000 0.975127 99.623 0.221570 9.5260 0.221570 9.5260 0.975127 99.434
8.68633500 0.975126 99.623 0.221573 9.5257 0.221573 9.5257 0.975126 99.434
8.68634000 0.975125 99.622 0.221577 9.5255 0.221577 9.5255 0.975125 99.433
8.68634500 0.975124 99.622 0.221580 9.5253 0.221580 9.5253 0.975124 99.433
8.68635000 0.975124 99.622 0.221584 9.5250 0.221584 9.5250 0.975123 99.433
8.68635500 0.975123 99.622 0.221587 9.5248 0.221587 9.5248 0.975123 99.433
8.68636000 0.975122 99.621 0.221590 9.5245 0.221590 9.5245 0.975122 99.432
8.68636500 0.975121 99.621 0.221594 9.5243 0.221594 9.5243 0.975121 99.432
8.68637000 0.975120 99.621 0.221597 9.5240 0.221597 9.5240 0.975120 99.432
8.68637500 0.975120 99.621 0.221601 9.5238 0.221601 9.5238 0.975119 99.432
8.68638000 0.975119 99.620 0.221604 9.5235 0.221604 9.5235 0.975119 99.431
8.68638500 0.975118 99.620 0.221608 9.5233 0.221608 9.5233 0.975118 99.431
8.68639000 0.975117 99.620 0.221611 9.5230 0.221611 9.5230 0.975117 99.431
8.68639500 0.975116 99.620 0.221615 9.5228 0.221615 9.5228 0.975116 99.431
8.68640000 0.975115 99.619 0.221618 9.5225 0.221618 9.5225 0.975115 99.430
8.68640500 0.975115 99.619 0.221622 9.5223 0.221622 9.5223 0.975115 99.430
8.68641000 0.975114 99.619 0.221625 9.5220 0.221625 9.5220 0.975114 99.430
8.68641500 0.975113 99.619 0.221629 9.5218 0.221629 9.5218 0.975113 99.430
8.68642000 0.975112 99.618 0.221632 9.5215 0.221632 9.5215 0.975112 99.429
8.68642500 0.975111 99.618 0.221636 9.5213 0.221636 9.5213 0.975111 99.429
8.68643000 0.975111 99.618 0.221639 9.5210 0.221639 9.5210 0.975110 99.429
8.68643500 0.975110 99.618 0.221643 9.5208 0.221643 9.5208 0.975110 99.429
8.68644000 0.975109 99.617 0.221646 9.5205 0.221646 9.5205 0.975109 99.428
8.68644500 0.975108 99.617 0.221650 9.5203 0.221650 9.5203 0.975108 99.428
8.68645000 0.975107 99.617 0.221653 9.5200 0.221653 9.5200 0.975107 99.428
8.68645500 0.975106 99.617 0.221657 9.5198 0.221657 9.5198 0.975106 99.428
8.68646000 0.975106 99.616 0.221661 9.5195 0.221661 9.5195 0.975106 99.428
8.68646500 0.975105 99.616 0.221664 9.5193 0.221664 9.5193 0.975105 99.427
8.68647000 0.975104 99.616 0.221668 9.5190 0.221668 9.5190 0.975104 99.427
8.68647500 0.975103 99.616 0.221671 9.5188 0.221671 9.5188 0.975103 99.427
8.68648000 0.975102 99.615 0.221675 9.5185 0.221675 9.5185 0.975102 99.427
8.68648500 0.975101 99.615 0.221678 9.5183 0.221678 9.5183 0.975101 99.426
8.68649000 0.975101 99.615 0.221682 9.5180 0.221682 9.5180 0.975101 99.426
8.68649500 0.975100 99.615 0.221686 9.5177 0.221686 9.5177 0.975100 99.426
8.68650000 0.975099 99.614 0.221689 9.5175 0.221689 9.5175 0.975099 99.426
8.68650500 0.975098 99.614 0.221693 9.5172 0.221693 9.5172 0.975098 99.425
8.68651000 0.975097 99.614 0.221696 9.5170 0.221696 9.5170 0.975097 99.425
8.68651500 0.975096 99.614 0.221700 9.5167 0.221700 9.5167 0.975096 99.425
8.68652000 0.975096 99.613 0.221704 9.5165 0.221704 9.5165 0.975096 99.425
8.68652500 0.975095 99.613 0.221707 9.5162 0.221707 9.5162 0.975095 99.424
8.68653000 0.975094 99.613 0.221711 9.5160 0.221711 9.5160 0.975094 99.424
8.68653500 0.975093 99.613 0.221714 9.5157 0.221714 9.5157 0.975093 99.424
8.68654000 0.975092 99.612 0.221718 9.5154 0.221718 9.5154 0.975092 99.423
8.68654500 0.975091 99.612 0.221722 9.5152 0.221722 9.5152 0.975091 99.423
8.68655000 0.975091 99.612 0.221725 9.5149 0.221725 9.5149 0.975090 99.423
8.68655500 0.975090 99.612 0.221729 9.5147 0.221729 9.5147 0.975090 99.423
8.68656000 0.975089 99.611 0.221733 9.5144 0.221733 9.5144 0.975089 99.422
8.68656500 0.975088 99.611 0.221736 9.5141 0.221736 9.5141 0.975088 99.422
8.68657000 0.975087 99.611 0.221740 9.5139 0.221740 9.5139 0.975087 99.422
8.68657500 0.975086 99.611 0.221744 9.5136 0.221744 9.5136 0.975086 99.422
8.68658000 0.975085 99.610 0.221747 9.5134 0.221747 9.5134 0.975085 99.421
8.68658500 0.975085 99.610 0.221751 9.5131 0.221751 9.5131 0.975084 99.421
8.68659000 0.975084 99.610 0.221755 9.5128 0.221755 9.5128 0.975084 99.421
8.68659500 0.975083 99.610 0.221758 9.5126 0.221758 9.5126 0.975083 99.421
8.68660000 0.975082 99.609 0.221762 9.5123 0.221762 9.5123 0.975082 99.420
8.68660500 0.975081 99.609 0.221766 9.5121 0.221766 9.5121 0.975081 99.420
8.68661000 0.975080 99.609 0.221770 9.5118 0.221770 9.5118 0.975080 99.420
8.68661500 0.975079 99.609 0.221773 9.5115 0.221773 9.5115 0.975079 99.420
8.68662000 0.975078 99.608 0.221777 9.5113 0.221777 9.5113 0.975078 99.419
8.68662500 0.975078 99.608 0.221781 9.5110 0.221781 9.5110 0.975078 99.419
8.68663000 0.975077 99.608 0.221784 9.5107 0.221784 9.5107 0.975077 99.419
8.68663500 0.975076 99.608 0.221788 9.5105 0.221788 9.5105 0.975076 99.419
8.68664000 0.975075 99.607 0.221792 9.5102 0.221792 9.5102 0.975075 99.418
8.68664500 0.975074 99.607 0.221796 9.5100 0.221796 9.5100 0.975074 99.418
8.68665000 0.975073 99.607 0.221799 9.5097 0.221799 9.5097 0.975073 99.418
8.68665500 0.975072 99.607 0.221803 9.5094 0.221803 9.5094 0.975072 99.418
8.68666000 0.975072 99.606 0.221807 9.5092 0.221807 9.5092 0.975071 99.417
8.68666500 0.975071 99.606 0.221811 9.5089 0.221811 9.5089 0.975071 99.417
8.68667000 0.975070 99.606 0.221814 9.5086 0.221814 9.5086 0.975070 99.417
8.68667500 0.975069 99.606 0.221818 9.5084 0.221818 9.5084 0.975069 99.417
8.68668000 0.975068 99.605 0.221822 9.5081 0.221822 9.5081 0.975068 99.416
8.68668500 0.975067 99.605 0.221826 9.5078 0.221826 9.5078 0.975067 99.416
8.68669000 0.975066 99.605 0.221830 9.5076 0.221830 9.5076 0.975066 99.416
8.68669500 0.975065 99.604 0.221833 9.5073 0.221833 9.5073 0.975065 99.415
8.68670000 0.975064 99.604 0.221837 9.5070 0.221837 9.5070 0.975064 99.415
8.68670500 0.975064 99.604 0.221841 9.5068 0.221841 9.5068 0.975063 99.415
8.68671000 0.975063 99.604 0.221845 9.5065 0.221845 9.5065 0.975063 99.415
8.68671500 0.975062 99.603 0.221849 9.5062 0.221849 9.5062 0.975062 99.414
8.68672000 0.975061 99.603 0.221852 9.5059 0.221852 9.5059 0.975061 99.414
8.68672500 0.975060 99.603 0.221856 9.5057 0.221856 9.5057 0.975060 99.414
8.68673000 0.975059 99.603 0.221860 9.5054 0.221860 9.5054 0.975059 99.414
8.68673500 0.975058 99.602 0.221864 9.5051 0.221864 9.5051 0.975058 99.413
8.68674000 0.975057 99.602 0.221868 9.5049 0.221868 9.5049 0.975057 99.413
8.68674500 0.975056 99.602 0.221872 9.5046 0.221872 9.5046 0.975056 99.413
8.68675000 0.975055 99.602 0.221876 9.5043 0.221876 9.5043 0.975055 99.413
8.68675500 0.975055 99.601 0.221879 9.5041 0.221879 9.5041 0.975055 99.412
8.68676000 0.975054 99.601 0.221883 9.5038 0.221883 9.5038 0.975054 99.412
8.68676500 0.975053 99.601 0.221887 9.5035 0.221887 9.5035 0.975053 99.412
8.68677000 0.975052 99.601 0.221891 9.5032 0.221891 9.5032 0.975052 99.412
8.68677500 0.975051 99.600 0.221895 9.5030 0.221895 9.5030 0.975051 99.411
8.68678000 0.975050 99.600 0.221899 9.5027 0.221899 9.5027 0.975050 99.411
8.68678500 0.975049 99.600 0.221903 9.5024 0.221903 9.5024 0.975049 99.411
8.68679000 0.975048 99.599 0.221907 9.5021 0.221907 9.5021 0.975048 99.410
8.68679500 0.975047 99.599 0.221911 9.5019 0.221911 9.5019 0.975047 99.410
8.68680000 0.975046 99.599 0.221915 9.5016 0.221915 9.5016 0.975046 99.410
8.68680500 0.975045 99.599 0.221918 9.5013 0.221918 9.5013 0.975045 99.410
8.68681000 0.975045 99.598 0.221922 9.5010 0.221922 9.5010 0.975044 99.409
8.68681500 0.975044 99.598 0.221926 9.5008 0.221926 9.5008 0.975044 99.409
8.68682000 0.975043 99.598 0.221930 9.5005 0.221930 9.5005 0.975043 99.409
8.68682500 0.975042 99.598 0.221934 9.5002 0.221934 9.5002 0.975042 99.409
8.68683000 0.975041 99.597 0.221938 9.4999 0.221938 9.4999 0.975041 99.408
8.68683500 0.975040 99.597 0.221942 9.4997 0.221942 9.4997 0.975040 99.408
8.68684000 0.975039 99.597 0.221946 9.4994 0.221946 9.4994 0.975039 99.408
8.68684500 0.975038 99.596 0.221950 9.4991 0.221950 9.4991 0.975038 99.407
8.68685000 0.975037 99.596 0.221954 9.4988 0.221954 9.4988 0.975037 99.407
8.68685500 0.975036 99.596 0.221958 9.4985 0.221958 9.4985 0.975036 99.407
8.68686000 0.975035 99.596 0.221962 9.4983 0.221962 9.4983 0.975035 99.407
8.68686500 0.975034 99.595 0.221966 9.4980 0.221966 9.4980 0.975034 99.406
8.68687000 0.975033 99.595 0.221970 9.4977 0.221970 9.4977 0.975033 99.406
8.68687500 0.975033 99.595 0.221974 9.4974 0.221974 9.4974 0.975032 99.406
8.68688000 0.975032 99.595 0.221978 9.4971 0.221978 9.4971 0.975031 99.406
8.68688500 0.975031 99.594 0.221982 9.4969 0.221982 9.4969 0.975031 99.405
8.68689000 0.975030 99.594 0.221986 9.4966 0.221986 9.4966 0.975030 99.405
8.68689500 0.975029 99.594 0.221990 9.4963 0.221990 9.4963 0.975029 99.405
8.68690000 0.975028 99.593 0.221994 9.4960 0.221994 9.4960 0.975028 99.404
8.68690500 0.975027 99.593 0.221998 9.4957 0.221998 9.4957 0.975027 99.404
8.68691000 0.975026 99.593 0.222002 9.4954 0.222002 9.4954 0.975026 99.404
8.68691500 0.975025 99.593 0.222006 9.4952 0.222006 9.4952 0.975025 99.404
8.68692000 0.975024 99.592 0.222010 9.4949 0.222010 9.4949 0.975024 99.403
8.68692500 0.975023 99.592 0.222015 9.4946 0.222015 9.4946 0.975023 99.403
8.68693000 0.975022 99.592 0.222019 9.4943 0.222019 9.4943 0.975022 99.403
8.68693500 0.975021 99.592 0.222023 9.4940 0.222023 9.4940 0.975021 99.402
8.68694000 0.975020 99.591 0.222027 9.4937 0.222027 9.4937 0.975020 99.402
8.68694500 0.975019 99.591 0.222031 9.4934 0.222031 9.4934 0.975019 99.402
8.68695000 0.975018 99.591 0.222035 9.4932 0.222035 9.4932 0.975018 99.402
8.68695500 0.975017 99.590 0.222039 9.4929 0.222039 9.4929 0.975017 99.401
8.68696000 0.975016 99.590 0.222043 9.4926 0.222043 9.4926 0.975016 99.401