! Sonnet Data File
! From: emgraph Version : 16.52
! From Emgraph Data: 171106_xz_squiggleX_Res5G_EvenBrgSg
! Data File Written: 11/08/2017 15:27:10
!< HDATE 11/08/2017 14:35:54
!< MDATE 11/08/2017 14:35:54
!< PARAMS
!< Squiggle_length = 16.0
!< Inter_L = 35.0
!< Holo = 82.0
!< Inter = 19.0
!< END PARAMS
# GHZ S MA R 50.00000
4.00000000 0.087735 -149.1 0.996139 -61.65 0.996139 -61.65 0.087735 -154.2
!< P1 F=4.0 Eeff=(6.46205531 -2.9804e-5) Z0=(51.0228591 1.17668e-4) R=0.01152096 C=0.01592983 
!< P2 F=4.0 Eeff=(6.46205531 -2.9804e-5) Z0=(51.0228591 1.17668e-4) R=0.01152096 C=0.01592983 
4.00100000 0.087969 -149.1 0.996119 -61.68 0.996119 -61.68 0.087970 -154.2
4.00200000 0.088204 -149.2 0.996098 -61.71 0.996098 -61.71 0.088205 -154.3
4.00300000 0.088440 -149.2 0.996077 -61.74 0.996077 -61.74 0.088440 -154.3
4.00400000 0.088675 -149.2 0.996056 -61.77 0.996056 -61.77 0.088676 -154.3
4.00500000 0.088911 -149.3 0.996035 -61.80 0.996035 -61.80 0.088913 -154.3
4.00600000 0.089148 -149.3 0.996014 -61.83 0.996014 -61.83 0.089149 -154.4
4.00700000 0.089385 -149.3 0.995993 -61.86 0.995993 -61.86 0.089386 -154.4
4.00800000 0.089622 -149.4 0.995972 -61.89 0.995972 -61.89 0.089624 -154.4
4.00900000 0.089860 -149.4 0.995951 -61.92 0.995951 -61.92 0.089861 -154.4
4.01000000 0.090097 -149.4 0.995929 -61.95 0.995929 -61.95 0.090100 -154.5
4.01100000 0.090336 -149.5 0.995908 -61.97 0.995908 -61.97 0.090338 -154.5
4.01200000 0.090574 -149.5 0.995886 -62.00 0.995886 -62.00 0.090577 -154.5
4.01300000 0.090813 -149.5 0.995865 -62.03 0.995865 -62.03 0.090816 -154.5
4.01400000 0.091053 -149.6 0.995843 -62.06 0.995843 -62.06 0.091056 -154.6
4.01500000 0.091293 -149.6 0.995821 -62.09 0.995821 -62.09 0.091295 -154.6
4.01600000 0.091533 -149.6 0.995799 -62.12 0.995799 -62.12 0.091536 -154.6
4.01700000 0.091773 -149.7 0.995777 -62.15 0.995777 -62.15 0.091776 -154.6
4.01800000 0.092014 -149.7 0.995755 -62.18 0.995755 -62.18 0.092017 -154.7
4.01900000 0.092255 -149.7 0.995733 -62.21 0.995733 -62.21 0.092259 -154.7
4.02000000 0.092497 -149.8 0.995710 -62.24 0.995710 -62.24 0.092501 -154.7
4.02100000 0.092739 -149.8 0.995688 -62.27 0.995688 -62.27 0.092743 -154.8
4.02200000 0.092981 -149.8 0.995666 -62.30 0.995666 -62.30 0.092985 -154.8
4.02300000 0.093224 -149.9 0.995643 -62.33 0.995643 -62.33 0.093228 -154.8
4.02400000 0.093467 -149.9 0.995620 -62.36 0.995620 -62.36 0.093471 -154.8
4.02500000 0.093710 -149.9 0.995598 -62.39 0.995598 -62.39 0.093715 -154.9
4.02600000 0.093954 -149.9 0.995575 -62.42 0.995575 -62.42 0.093959 -154.9
4.02700000 0.094198 -150.0 0.995552 -62.45 0.995552 -62.45 0.094203 -154.9
4.02800000 0.094443 -150.0 0.995529 -62.48 0.995529 -62.48 0.094448 -154.9
4.02900000 0.094688 -150.0 0.995505 -62.51 0.995505 -62.51 0.094693 -155.0
4.03000000 0.094933 -150.1 0.995482 -62.54 0.995482 -62.54 0.094939 -155.0
4.03100000 0.095179 -150.1 0.995459 -62.57 0.995459 -62.57 0.095185 -155.0
4.03200000 0.095425 -150.1 0.995435 -62.60 0.995435 -62.60 0.095431 -155.1
4.03300000 0.095671 -150.2 0.995412 -62.63 0.995412 -62.63 0.095677 -155.1
4.03400000 0.095918 -150.2 0.995388 -62.66 0.995388 -62.66 0.095924 -155.1
4.03500000 0.096166 -150.2 0.995364 -62.69 0.995364 -62.69 0.096172 -155.1
4.03600000 0.096413 -150.3 0.995341 -62.72 0.995341 -62.72 0.096419 -155.2
4.03700000 0.096661 -150.3 0.995317 -62.75 0.995317 -62.75 0.096668 -155.2
4.03800000 0.096909 -150.3 0.995293 -62.78 0.995293 -62.78 0.096916 -155.2
4.03900000 0.097158 -150.4 0.995268 -62.81 0.995268 -62.81 0.097165 -155.2
4.04000000 0.097407 -150.4 0.995244 -62.84 0.995244 -62.84 0.097414 -155.3
4.04100000 0.097657 -150.4 0.995220 -62.87 0.995220 -62.87 0.097664 -155.3
4.04200000 0.097907 -150.5 0.995195 -62.90 0.995195 -62.90 0.097914 -155.3
4.04300000 0.098157 -150.5 0.995171 -62.93 0.995171 -62.93 0.098164 -155.4
4.04400000 0.098408 -150.5 0.995146 -62.96 0.995146 -62.96 0.098415 -155.4
4.04500000 0.098659 -150.6 0.995121 -62.99 0.995121 -62.99 0.098666 -155.4
4.04600000 0.098910 -150.6 0.995097 -63.02 0.995097 -63.02 0.098918 -155.4
4.04700000 0.099162 -150.6 0.995072 -63.05 0.995072 -63.05 0.099170 -155.5
4.04800000 0.099414 -150.7 0.995047 -63.08 0.995047 -63.08 0.099422 -155.5
4.04900000 0.099666 -150.7 0.995021 -63.11 0.995021 -63.11 0.099675 -155.5
4.05000000 0.099919 -150.7 0.994996 -63.15 0.994996 -63.15 0.099928 -155.6
4.05100000 0.100173 -150.8 0.994971 -63.18 0.994971 -63.18 0.100181 -155.6
4.05200000 0.100426 -150.8 0.994945 -63.21 0.994945 -63.21 0.100435 -155.6
4.05300000 0.100681 -150.8 0.994920 -63.24 0.994920 -63.24 0.100690 -155.6
4.05400000 0.100935 -150.9 0.994894 -63.27 0.994894 -63.27 0.100944 -155.7
4.05500000 0.101190 -150.9 0.994868 -63.30 0.994868 -63.30 0.101199 -155.7
4.05600000 0.101445 -150.9 0.994842 -63.33 0.994842 -63.33 0.101455 -155.7
4.05700000 0.101701 -151.0 0.994816 -63.36 0.994816 -63.36 0.101711 -155.8
4.05800000 0.101957 -151.0 0.994790 -63.39 0.994790 -63.39 0.101967 -155.8
4.05900000 0.102214 -151.0 0.994764 -63.42 0.994764 -63.42 0.102223 -155.8
4.06000000 0.102470 -151.1 0.994738 -63.45 0.994738 -63.45 0.102480 -155.8
4.06100000 0.102728 -151.1 0.994711 -63.48 0.994711 -63.48 0.102738 -155.9
4.06200000 0.102985 -151.1 0.994685 -63.51 0.994685 -63.51 0.102996 -155.9
4.06300000 0.103243 -151.2 0.994658 -63.55 0.994658 -63.55 0.103254 -155.9
4.06400000 0.103502 -151.2 0.994631 -63.58 0.994631 -63.58 0.103512 -155.9
4.06500000 0.103761 -151.2 0.994604 -63.61 0.994604 -63.61 0.103771 -156.0
4.06600000 0.104020 -151.3 0.994577 -63.64 0.994577 -63.64 0.104031 -156.0
4.06700000 0.104279 -151.3 0.994550 -63.67 0.994550 -63.67 0.104290 -156.0
4.06800000 0.104539 -151.3 0.994523 -63.70 0.994523 -63.70 0.104551 -156.1
4.06900000 0.104800 -151.4 0.994496 -63.73 0.994496 -63.73 0.104811 -156.1
4.07000000 0.105061 -151.4 0.994468 -63.76 0.994468 -63.76 0.105072 -156.1
4.07100000 0.105322 -151.4 0.994441 -63.79 0.994441 -63.79 0.105334 -156.2
4.07200000 0.105584 -151.5 0.994413 -63.83 0.994413 -63.83 0.105595 -156.2
4.07300000 0.105846 -151.5 0.994385 -63.86 0.994385 -63.86 0.105857 -156.2
4.07400000 0.106108 -151.5 0.994357 -63.89 0.994357 -63.89 0.106120 -156.2
4.07500000 0.106371 -151.6 0.994329 -63.92 0.994329 -63.92 0.106383 -156.3
4.07600000 0.106634 -151.6 0.994301 -63.95 0.994301 -63.95 0.106646 -156.3
4.07700000 0.106898 -151.6 0.994273 -63.98 0.994273 -63.98 0.106910 -156.3
4.07800000 0.107162 -151.7 0.994245 -64.01 0.994245 -64.01 0.107174 -156.4
4.07900000 0.107426 -151.7 0.994216 -64.04 0.994216 -64.04 0.107439 -156.4
4.08000000 0.107691 -151.7 0.994188 -64.08 0.994188 -64.08 0.107704 -156.4
4.08100000 0.107956 -151.8 0.994159 -64.11 0.994159 -64.11 0.107969 -156.4
4.08200000 0.108222 -151.8 0.994130 -64.14 0.994130 -64.14 0.108235 -156.5
4.08300000 0.108488 -151.8 0.994101 -64.17 0.994101 -64.17 0.108501 -156.5
4.08400000 0.108755 -151.9 0.994072 -64.20 0.994072 -64.20 0.108768 -156.5
4.08500000 0.109022 -151.9 0.994043 -64.23 0.994043 -64.23 0.109035 -156.6
4.08600000 0.109289 -151.9 0.994014 -64.27 0.994014 -64.27 0.109302 -156.6
4.08700000 0.109557 -152.0 0.993984 -64.30 0.993984 -64.30 0.109570 -156.6
4.08800000 0.109825 -152.0 0.993955 -64.33 0.993955 -64.33 0.109839 -156.6
4.08900000 0.110093 -152.0 0.993925 -64.36 0.993925 -64.36 0.110107 -156.7
4.09000000 0.110362 -152.1 0.993895 -64.39 0.993895 -64.39 0.110376 -156.7
4.09100000 0.110632 -152.1 0.993866 -64.42 0.993866 -64.42 0.110646 -156.7
4.09200000 0.110901 -152.1 0.993836 -64.46 0.993836 -64.46 0.110916 -156.8
4.09300000 0.111172 -152.2 0.993805 -64.49 0.993805 -64.49 0.111186 -156.8
4.09400000 0.111442 -152.2 0.993775 -64.52 0.993775 -64.52 0.111457 -156.8
4.09500000 0.111713 -152.2 0.993745 -64.55 0.993745 -64.55 0.111728 -156.9
4.09600000 0.111985 -152.3 0.993714 -64.58 0.993714 -64.58 0.111999 -156.9
4.09700000 0.112256 -152.3 0.993684 -64.62 0.993684 -64.62 0.112271 -156.9
4.09800000 0.112529 -152.3 0.993653 -64.65 0.993653 -64.65 0.112544 -156.9
4.09900000 0.112801 -152.4 0.993622 -64.68 0.993622 -64.68 0.112817 -157.0
4.10000000 0.113075 -152.4 0.993591 -64.71 0.993591 -64.71 0.113090 -157.0
4.10100000 0.113348 -152.4 0.993560 -64.74 0.993560 -64.74 0.113364 -157.0
4.10200000 0.113622 -152.5 0.993529 -64.78 0.993529 -64.78 0.113638 -157.1
4.10300000 0.113896 -152.5 0.993498 -64.81 0.993498 -64.81 0.113912 -157.1
4.10400000 0.114171 -152.5 0.993466 -64.84 0.993466 -64.84 0.114187 -157.1
4.10500000 0.114446 -152.6 0.993435 -64.87 0.993435 -64.87 0.114462 -157.2
4.10600000 0.114722 -152.6 0.993403 -64.90 0.993403 -64.90 0.114738 -157.2
4.10700000 0.114998 -152.7 0.993371 -64.94 0.993371 -64.94 0.115014 -157.2
4.10800000 0.115275 -152.7 0.993339 -64.97 0.993339 -64.97 0.115291 -157.2
4.10900000 0.115552 -152.7 0.993307 -65.00 0.993307 -65.00 0.115568 -157.3
4.11000000 0.115829 -152.8 0.993275 -65.03 0.993275 -65.03 0.115845 -157.3
4.11100000 0.116107 -152.8 0.993242 -65.07 0.993242 -65.07 0.116123 -157.3
4.11200000 0.116385 -152.8 0.993210 -65.10 0.993210 -65.10 0.116402 -157.4
4.11300000 0.116663 -152.9 0.993177 -65.13 0.993177 -65.13 0.116680 -157.4
4.11400000 0.116943 -152.9 0.993144 -65.16 0.993144 -65.16 0.116960 -157.4
4.11500000 0.117222 -152.9 0.993112 -65.20 0.993112 -65.20 0.117239 -157.5
4.11600000 0.117502 -153.0 0.993079 -65.23 0.993079 -65.23 0.117519 -157.5
4.11700000 0.117782 -153.0 0.993045 -65.26 0.993045 -65.26 0.117800 -157.5
4.11800000 0.118063 -153.0 0.993012 -65.29 0.993012 -65.29 0.118080 -157.6
4.11900000 0.118344 -153.1 0.992979 -65.33 0.992979 -65.33 0.118362 -157.6
4.12000000 0.118626 -153.1 0.992945 -65.36 0.992945 -65.36 0.118644 -157.6
4.12100000 0.118908 -153.1 0.992911 -65.39 0.992911 -65.39 0.118926 -157.6
4.12200000 0.119190 -153.2 0.992878 -65.43 0.992878 -65.43 0.119208 -157.7
4.12300000 0.119473 -153.2 0.992844 -65.46 0.992844 -65.46 0.119491 -157.7
4.12400000 0.119757 -153.2 0.992810 -65.49 0.992810 -65.49 0.119775 -157.7
4.12500000 0.120040 -153.3 0.992775 -65.52 0.992775 -65.52 0.120059 -157.8
4.12600000 0.120325 -153.3 0.992741 -65.56 0.992741 -65.56 0.120343 -157.8
4.12700000 0.120609 -153.3 0.992707 -65.59 0.992707 -65.59 0.120628 -157.8
4.12800000 0.120895 -153.4 0.992672 -65.62 0.992672 -65.62 0.120913 -157.9
4.12900000 0.121180 -153.4 0.992637 -65.66 0.992637 -65.66 0.121199 -157.9
4.13000000 0.121466 -153.4 0.992602 -65.69 0.992602 -65.69 0.121485 -157.9
4.13100000 0.121753 -153.5 0.992567 -65.72 0.992567 -65.72 0.121771 -158.0
4.13200000 0.122039 -153.5 0.992532 -65.76 0.992532 -65.76 0.122058 -158.0
4.13300000 0.122327 -153.6 0.992497 -65.79 0.992497 -65.79 0.122346 -158.0
4.13400000 0.122614 -153.6 0.992461 -65.82 0.992461 -65.82 0.122634 -158.0
4.13500000 0.122903 -153.6 0.992426 -65.86 0.992426 -65.86 0.122922 -158.1
4.13600000 0.123191 -153.7 0.992390 -65.89 0.992390 -65.89 0.123211 -158.1
4.13700000 0.123480 -153.7 0.992354 -65.92 0.992354 -65.92 0.123500 -158.1
4.13800000 0.123770 -153.7 0.992318 -65.96 0.992318 -65.96 0.123789 -158.2
4.13900000 0.124060 -153.8 0.992282 -65.99 0.992282 -65.99 0.124080 -158.2
4.14000000 0.124350 -153.8 0.992246 -66.02 0.992246 -66.02 0.124370 -158.2
4.14100000 0.124641 -153.8 0.992209 -66.06 0.992209 -66.06 0.124661 -158.3
4.14200000 0.124932 -153.9 0.992173 -66.09 0.992173 -66.09 0.124952 -158.3
4.14300000 0.125224 -153.9 0.992136 -66.12 0.992136 -66.12 0.125244 -158.3
4.14400000 0.125516 -153.9 0.992099 -66.16 0.992099 -66.16 0.125537 -158.4
4.14500000 0.125809 -154.0 0.992062 -66.19 0.992062 -66.19 0.125829 -158.4
4.14600000 0.126102 -154.0 0.992025 -66.22 0.992025 -66.22 0.126123 -158.4
4.14700000 0.126396 -154.0 0.991988 -66.26 0.991988 -66.26 0.126416 -158.5
4.14800000 0.126690 -154.1 0.991950 -66.29 0.991950 -66.29 0.126710 -158.5
4.14900000 0.126984 -154.1 0.991913 -66.32 0.991913 -66.32 0.127005 -158.5
4.15000000 0.127279 -154.2 0.991875 -66.36 0.991875 -66.36 0.127300 -158.6
4.15100000 0.127575 -154.2 0.991837 -66.39 0.991837 -66.39 0.127595 -158.6
4.15200000 0.127870 -154.2 0.991799 -66.43 0.991799 -66.43 0.127891 -158.6
4.15300000 0.128167 -154.3 0.991761 -66.46 0.991761 -66.46 0.128188 -158.7
4.15400000 0.128463 -154.3 0.991722 -66.49 0.991722 -66.49 0.128485 -158.7
4.15500000 0.128761 -154.3 0.991684 -66.53 0.991684 -66.53 0.128782 -158.7
4.15600000 0.129058 -154.4 0.991645 -66.56 0.991645 -66.56 0.129080 -158.7
4.15700000 0.129356 -154.4 0.991606 -66.60 0.991606 -66.60 0.129378 -158.8
4.15800000 0.129655 -154.4 0.991567 -66.63 0.991567 -66.63 0.129676 -158.8
4.15900000 0.129954 -154.5 0.991528 -66.66 0.991528 -66.66 0.129976 -158.8
4.16000000 0.130253 -154.5 0.991489 -66.70 0.991489 -66.70 0.130275 -158.9
4.16100000 0.130553 -154.5 0.991450 -66.73 0.991450 -66.73 0.130575 -158.9
4.16200000 0.130854 -154.6 0.991410 -66.77 0.991410 -66.77 0.130876 -158.9
4.16300000 0.131155 -154.6 0.991370 -66.80 0.991370 -66.80 0.131177 -159.0
4.16400000 0.131456 -154.7 0.991331 -66.83 0.991331 -66.83 0.131478 -159.0
4.16500000 0.131758 -154.7 0.991290 -66.87 0.991290 -66.87 0.131780 -159.0
4.16600000 0.132060 -154.7 0.991250 -66.90 0.991250 -66.90 0.132082 -159.1
4.16700000 0.132363 -154.8 0.991210 -66.94 0.991210 -66.94 0.132385 -159.1
4.16800000 0.132666 -154.8 0.991169 -66.97 0.991169 -66.97 0.132688 -159.1
4.16900000 0.132970 -154.8 0.991129 -67.01 0.991129 -67.01 0.132992 -159.2
4.17000000 0.133274 -154.9 0.991088 -67.04 0.991088 -67.04 0.133296 -159.2
4.17100000 0.133578 -154.9 0.991047 -67.08 0.991047 -67.08 0.133601 -159.2
4.17200000 0.133883 -154.9 0.991006 -67.11 0.991006 -67.11 0.133906 -159.3
4.17300000 0.134189 -155.0 0.990965 -67.14 0.990965 -67.14 0.134212 -159.3
4.17400000 0.134495 -155.0 0.990923 -67.18 0.990923 -67.18 0.134518 -159.3
4.17500000 0.134801 -155.0 0.990882 -67.21 0.990882 -67.21 0.134824 -159.4
4.17600000 0.135108 -155.1 0.990840 -67.25 0.990840 -67.25 0.135131 -159.4
4.17700000 0.135416 -155.1 0.990798 -67.28 0.990798 -67.28 0.135439 -159.4
4.17800000 0.135724 -155.2 0.990756 -67.32 0.990756 -67.32 0.135747 -159.5
4.17900000 0.136032 -155.2 0.990714 -67.35 0.990714 -67.35 0.136055 -159.5
4.18000000 0.136341 -155.2 0.990671 -67.39 0.990671 -67.39 0.136364 -159.5
4.18100000 0.136650 -155.3 0.990629 -67.42 0.990629 -67.42 0.136674 -159.6
4.18200000 0.136960 -155.3 0.990586 -67.46 0.990586 -67.46 0.136984 -159.6
4.18300000 0.137270 -155.3 0.990543 -67.49 0.990543 -67.49 0.137294 -159.6
4.18400000 0.137581 -155.4 0.990500 -67.53 0.990500 -67.53 0.137605 -159.7
4.18500000 0.137892 -155.4 0.990457 -67.56 0.990457 -67.56 0.137916 -159.7
4.18600000 0.138204 -155.4 0.990413 -67.60 0.990413 -67.60 0.138228 -159.7
4.18700000 0.138516 -155.5 0.990370 -67.63 0.990370 -67.63 0.138540 -159.8
4.18800000 0.138829 -155.5 0.990326 -67.67 0.990326 -67.67 0.138853 -159.8
4.18900000 0.139142 -155.6 0.990282 -67.70 0.990282 -67.70 0.139166 -159.8
4.19000000 0.139456 -155.6 0.990238 -67.74 0.990238 -67.74 0.139480 -159.9
4.19100000 0.139770 -155.6 0.990194 -67.77 0.990194 -67.77 0.139794 -159.9
4.19200000 0.140084 -155.7 0.990149 -67.81 0.990149 -67.81 0.140109 -159.9
4.19300000 0.140399 -155.7 0.990105 -67.84 0.990105 -67.84 0.140424 -160.0
4.19400000 0.140715 -155.7 0.990060 -67.88 0.990060 -67.88 0.140739 -160.0
4.19500000 0.141031 -155.8 0.990015 -67.92 0.990015 -67.92 0.141055 -160.0
4.19600000 0.141347 -155.8 0.989970 -67.95 0.989970 -67.95 0.141372 -160.1
4.19700000 0.141664 -155.9 0.989925 -67.99 0.989925 -67.99 0.141689 -160.1
4.19800000 0.141982 -155.9 0.989879 -68.02 0.989879 -68.02 0.142007 -160.1
4.19900000 0.142300 -155.9 0.989833 -68.06 0.989833 -68.06 0.142325 -160.2
4.20000000 0.142618 -156.0 0.989788 -68.09 0.989788 -68.09 0.142643 -160.2
4.20100000 0.142937 -156.0 0.989742 -68.13 0.989742 -68.13 0.142962 -160.2
4.20200000 0.143257 -156.0 0.989695 -68.16 0.989695 -68.16 0.143282 -160.3
4.20300000 0.143577 -156.1 0.989649 -68.20 0.989649 -68.20 0.143602 -160.3
4.20400000 0.143897 -156.1 0.989603 -68.24 0.989603 -68.24 0.143922 -160.3
4.20500000 0.144218 -156.2 0.989556 -68.27 0.989556 -68.27 0.144243 -160.4
4.20600000 0.144540 -156.2 0.989509 -68.31 0.989509 -68.31 0.144565 -160.4
4.20700000 0.144862 -156.2 0.989462 -68.34 0.989462 -68.34 0.144887 -160.4
4.20800000 0.145184 -156.3 0.989415 -68.38 0.989415 -68.38 0.145209 -160.5
4.20900000 0.145507 -156.3 0.989367 -68.42 0.989367 -68.42 0.145532 -160.5
4.21000000 0.145830 -156.3 0.989320 -68.45 0.989320 -68.45 0.145856 -160.6
4.21100000 0.146154 -156.4 0.989272 -68.49 0.989272 -68.49 0.146180 -160.6
4.21200000 0.146479 -156.4 0.989224 -68.52 0.989224 -68.52 0.146504 -160.6
4.21300000 0.146804 -156.5 0.989176 -68.56 0.989176 -68.56 0.146829 -160.7
4.21400000 0.147129 -156.5 0.989128 -68.60 0.989128 -68.60 0.147155 -160.7
4.21500000 0.147455 -156.5 0.989079 -68.63 0.989079 -68.63 0.147481 -160.7
4.21600000 0.147781 -156.6 0.989030 -68.67 0.989030 -68.67 0.147807 -160.8
4.21700000 0.148108 -156.6 0.988982 -68.71 0.988982 -68.71 0.148134 -160.8
4.21800000 0.148436 -156.6 0.988932 -68.74 0.988932 -68.74 0.148462 -160.8
4.21900000 0.148763 -156.7 0.988883 -68.78 0.988883 -68.78 0.148790 -160.9
4.22000000 0.149092 -156.7 0.988834 -68.81 0.988834 -68.81 0.149118 -160.9
4.22100000 0.149421 -156.8 0.988784 -68.85 0.988784 -68.85 0.149447 -160.9
4.22200000 0.149750 -156.8 0.988734 -68.89 0.988734 -68.89 0.149777 -161.0
4.22300000 0.150080 -156.8 0.988684 -68.92 0.988684 -68.92 0.150107 -161.0
4.22400000 0.150411 -156.9 0.988634 -68.96 0.988634 -68.96 0.150437 -161.0
4.22500000 0.150742 -156.9 0.988584 -69.00 0.988584 -69.00 0.150768 -161.1
4.22600000 0.151073 -156.9 0.988533 -69.03 0.988533 -69.03 0.151100 -161.1
4.22700000 0.151405 -157.0 0.988482 -69.07 0.988482 -69.07 0.151432 -161.1
4.22800000 0.151738 -157.0 0.988431 -69.11 0.988431 -69.11 0.151764 -161.2
4.22900000 0.152071 -157.1 0.988380 -69.14 0.988380 -69.14 0.152097 -161.2
4.23000000 0.152404 -157.1 0.988329 -69.18 0.988329 -69.18 0.152431 -161.3
4.23100000 0.152738 -157.1 0.988277 -69.22 0.988277 -69.22 0.152765 -161.3
4.23200000 0.153073 -157.2 0.988226 -69.25 0.988226 -69.25 0.153099 -161.3
4.23300000 0.153408 -157.2 0.988174 -69.29 0.988174 -69.29 0.153434 -161.4
4.23400000 0.153743 -157.3 0.988122 -69.33 0.988122 -69.33 0.153770 -161.4
4.23500000 0.154079 -157.3 0.988069 -69.37 0.988069 -69.37 0.154106 -161.4
4.23600000 0.154416 -157.3 0.988017 -69.40 0.988017 -69.40 0.154443 -161.5
4.23700000 0.154753 -157.4 0.987964 -69.44 0.987964 -69.44 0.154780 -161.5
4.23800000 0.155091 -157.4 0.987911 -69.48 0.987911 -69.48 0.155118 -161.5
4.23900000 0.155429 -157.4 0.987858 -69.51 0.987858 -69.51 0.155456 -161.6
4.24000000 0.155767 -157.5 0.987805 -69.55 0.987805 -69.55 0.155795 -161.6
4.24100000 0.156107 -157.5 0.987751 -69.59 0.987751 -69.59 0.156134 -161.6
4.24200000 0.156446 -157.6 0.987697 -69.63 0.987697 -69.63 0.156474 -161.7
4.24300000 0.156786 -157.6 0.987643 -69.66 0.987643 -69.66 0.156814 -161.7
4.24400000 0.157127 -157.6 0.987589 -69.70 0.987589 -69.70 0.157155 -161.8
4.24500000 0.157469 -157.7 0.987535 -69.74 0.987535 -69.74 0.157496 -161.8
4.24600000 0.157810 -157.7 0.987480 -69.78 0.987480 -69.78 0.157838 -161.8
4.24700000 0.158153 -157.8 0.987426 -69.81 0.987426 -69.81 0.158180 -161.9
4.24800000 0.158495 -157.8 0.987371 -69.85 0.987371 -69.85 0.158523 -161.9
4.24900000 0.158839 -157.8 0.987316 -69.89 0.987316 -69.89 0.158867 -161.9
4.25000000 0.159183 -157.9 0.987260 -69.93 0.987260 -69.93 0.159210 -162.0
4.25100000 0.159527 -157.9 0.987205 -69.96 0.987205 -69.96 0.159555 -162.0
4.25200000 0.159872 -157.9 0.987149 -70.00 0.987149 -70.00 0.159900 -162.0
4.25300000 0.160218 -158.0 0.987093 -70.04 0.987093 -70.04 0.160245 -162.1
4.25400000 0.160564 -158.0 0.987037 -70.08 0.987037 -70.08 0.160592 -162.1
4.25500000 0.160910 -158.1 0.986980 -70.12 0.986980 -70.12 0.160938 -162.2
4.25600000 0.161257 -158.1 0.986923 -70.15 0.986923 -70.15 0.161285 -162.2
4.25700000 0.161605 -158.1 0.986867 -70.19 0.986867 -70.19 0.161633 -162.2
4.25800000 0.161953 -158.2 0.986810 -70.23 0.986810 -70.23 0.161981 -162.3
4.25900000 0.162302 -158.2 0.986752 -70.27 0.986752 -70.27 0.162330 -162.3
4.26000000 0.162651 -158.3 0.986695 -70.31 0.986695 -70.31 0.162679 -162.3
4.26100000 0.163001 -158.3 0.986637 -70.34 0.986637 -70.34 0.163029 -162.4
4.26200000 0.163351 -158.3 0.986579 -70.38 0.986579 -70.38 0.163379 -162.4
4.26300000 0.163702 -158.4 0.986521 -70.42 0.986521 -70.42 0.163730 -162.5
4.26400000 0.164053 -158.4 0.986463 -70.46 0.986463 -70.46 0.164081 -162.5
4.26500000 0.164405 -158.5 0.986404 -70.50 0.986404 -70.50 0.164433 -162.5
4.26600000 0.164757 -158.5 0.986345 -70.54 0.986345 -70.54 0.164786 -162.6
4.26700000 0.165110 -158.5 0.986286 -70.57 0.986286 -70.57 0.165139 -162.6
4.26800000 0.165464 -158.6 0.986227 -70.61 0.986227 -70.61 0.165492 -162.6
4.26900000 0.165818 -158.6 0.986168 -70.65 0.986168 -70.65 0.165847 -162.7
4.27000000 0.166173 -158.7 0.986108 -70.69 0.986108 -70.69 0.166201 -162.7
4.27100000 0.166528 -158.7 0.986048 -70.73 0.986048 -70.73 0.166556 -162.7
4.27200000 0.166883 -158.7 0.985988 -70.77 0.985988 -70.77 0.166912 -162.8
4.27300000 0.167240 -158.8 0.985927 -70.81 0.985927 -70.81 0.167268 -162.8
4.27400000 0.167596 -158.8 0.985867 -70.85 0.985867 -70.85 0.167625 -162.9
4.27500000 0.167954 -158.9 0.985806 -70.88 0.985806 -70.88 0.167983 -162.9
4.27600000 0.168312 -158.9 0.985745 -70.92 0.985745 -70.92 0.168340 -162.9
4.27700000 0.168670 -158.9 0.985684 -70.96 0.985684 -70.96 0.168699 -163.0
4.27800000 0.169029 -159.0 0.985622 -71.00 0.985622 -71.00 0.169058 -163.0
4.27900000 0.169389 -159.0 0.985561 -71.04 0.985561 -71.04 0.169417 -163.1
4.28000000 0.169749 -159.1 0.985499 -71.08 0.985499 -71.08 0.169778 -163.1
4.28100000 0.170109 -159.1 0.985436 -71.12 0.985436 -71.12 0.170138 -163.1
4.28200000 0.170470 -159.1 0.985374 -71.16 0.985374 -71.16 0.170499 -163.2
4.28300000 0.170832 -159.2 0.985311 -71.20 0.985311 -71.20 0.170861 -163.2
4.28400000 0.171194 -159.2 0.985249 -71.24 0.985249 -71.24 0.171224 -163.2
4.28500000 0.171557 -159.3 0.985185 -71.28 0.985185 -71.28 0.171586 -163.3
4.28600000 0.171921 -159.3 0.985122 -71.31 0.985122 -71.31 0.171950 -163.3
4.28700000 0.172285 -159.3 0.985058 -71.35 0.985058 -71.35 0.172314 -163.4
4.28800000 0.172649 -159.4 0.984995 -71.39 0.984995 -71.39 0.172678 -163.4
4.28900000 0.173014 -159.4 0.984931 -71.43 0.984931 -71.43 0.173043 -163.4
4.29000000 0.173380 -159.5 0.984866 -71.47 0.984866 -71.47 0.173409 -163.5
4.29100000 0.173746 -159.5 0.984802 -71.51 0.984802 -71.51 0.173775 -163.5
4.29200000 0.174113 -159.5 0.984737 -71.55 0.984737 -71.55 0.174142 -163.5
4.29300000 0.174480 -159.6 0.984672 -71.59 0.984672 -71.59 0.174509 -163.6
4.29400000 0.174848 -159.6 0.984607 -71.63 0.984607 -71.63 0.174877 -163.6
4.29500000 0.175216 -159.7 0.984541 -71.67 0.984541 -71.67 0.175246 -163.7
4.29600000 0.175585 -159.7 0.984475 -71.71 0.984475 -71.71 0.175615 -163.7
4.29700000 0.175955 -159.8 0.984409 -71.75 0.984409 -71.75 0.175984 -163.7
4.29800000 0.176325 -159.8 0.984343 -71.79 0.984343 -71.79 0.176354 -163.8
4.29900000 0.176696 -159.8 0.984277 -71.83 0.984277 -71.83 0.176725 -163.8
4.30000000 0.177067 -159.9 0.984210 -71.87 0.984210 -71.87 0.177096 -163.9
4.30100000 0.177439 -159.9 0.984143 -71.91 0.984143 -71.91 0.177468 -163.9
4.30200000 0.177811 -160.0 0.984076 -71.95 0.984076 -71.95 0.177841 -163.9
4.30300000 0.178184 -160.0 0.984008 -71.99 0.984008 -71.99 0.178214 -164.0
4.30400000 0.178558 -160.0 0.983941 -72.03 0.983941 -72.03 0.178587 -164.0
4.30500000 0.178932 -160.1 0.983873 -72.07 0.983873 -72.07 0.178961 -164.1
4.30600000 0.179306 -160.1 0.983805 -72.11 0.983805 -72.11 0.179336 -164.1
4.30700000 0.179682 -160.2 0.983736 -72.15 0.983736 -72.15 0.179711 -164.1
4.30800000 0.180057 -160.2 0.983667 -72.19 0.983667 -72.19 0.180087 -164.2
4.30900000 0.180434 -160.2 0.983598 -72.23 0.983598 -72.23 0.180463 -164.2
4.31000000 0.180811 -160.3 0.983529 -72.27 0.983529 -72.27 0.180840 -164.2
4.31100000 0.181188 -160.3 0.983460 -72.31 0.983460 -72.31 0.181218 -164.3
4.31200000 0.181566 -160.4 0.983390 -72.35 0.983390 -72.35 0.181596 -164.3
4.31300000 0.181945 -160.4 0.983320 -72.40 0.983320 -72.40 0.181975 -164.4
4.31400000 0.182324 -160.5 0.983250 -72.44 0.983250 -72.44 0.182354 -164.4
4.31500000 0.182704 -160.5 0.983179 -72.48 0.983179 -72.48 0.182734 -164.4
4.31600000 0.183084 -160.5 0.983108 -72.52 0.983108 -72.52 0.183114 -164.5
4.31700000 0.183465 -160.6 0.983037 -72.56 0.983037 -72.56 0.183495 -164.5
4.31800000 0.183847 -160.6 0.982966 -72.60 0.982966 -72.60 0.183877 -164.6
4.31900000 0.184229 -160.7 0.982894 -72.64 0.982894 -72.64 0.184259 -164.6
4.32000000 0.184612 -160.7 0.982823 -72.68 0.982823 -72.68 0.184642 -164.6
4.32100000 0.184995 -160.7 0.982751 -72.72 0.982751 -72.72 0.185025 -164.7
4.32200000 0.185379 -160.8 0.982678 -72.76 0.982678 -72.76 0.185409 -164.7
4.32300000 0.185764 -160.8 0.982606 -72.80 0.982606 -72.80 0.185794 -164.8
4.32400000 0.186149 -160.9 0.982533 -72.85 0.982533 -72.85 0.186179 -164.8
4.32500000 0.186534 -160.9 0.982460 -72.89 0.982460 -72.89 0.186564 -164.8
4.32600000 0.186921 -161.0 0.982386 -72.93 0.982386 -72.93 0.186951 -164.9
4.32700000 0.187307 -161.0 0.982312 -72.97 0.982312 -72.97 0.187337 -164.9
4.32800000 0.187695 -161.0 0.982238 -73.01 0.982238 -73.01 0.187725 -165.0
4.32900000 0.188083 -161.1 0.982164 -73.05 0.982164 -73.05 0.188113 -165.0
4.33000000 0.188471 -161.1 0.982090 -73.09 0.982090 -73.09 0.188501 -165.0
4.33100000 0.188861 -161.2 0.982015 -73.14 0.982015 -73.14 0.188891 -165.1
4.33200000 0.189250 -161.2 0.981940 -73.18 0.981940 -73.18 0.189280 -165.1
4.33300000 0.189641 -161.3 0.981865 -73.22 0.981865 -73.22 0.189671 -165.2
4.33400000 0.190032 -161.3 0.981789 -73.26 0.981789 -73.26 0.190062 -165.2
4.33500000 0.190423 -161.3 0.981713 -73.30 0.981713 -73.30 0.190453 -165.3
4.33600000 0.190815 -161.4 0.981637 -73.34 0.981637 -73.34 0.190845 -165.3
4.33700000 0.191208 -161.4 0.981560 -73.39 0.981560 -73.39 0.191238 -165.3
4.33800000 0.191601 -161.5 0.981484 -73.43 0.981484 -73.43 0.191632 -165.4
4.33900000 0.191995 -161.5 0.981407 -73.47 0.981407 -73.47 0.192026 -165.4
4.34000000 0.192390 -161.6 0.981329 -73.51 0.981329 -73.51 0.192420 -165.5
4.34100000 0.192785 -161.6 0.981252 -73.55 0.981252 -73.55 0.192815 -165.5
4.34200000 0.193181 -161.6 0.981174 -73.60 0.981174 -73.60 0.193211 -165.5
4.34300000 0.193577 -161.7 0.981096 -73.64 0.981096 -73.64 0.193607 -165.6
4.34400000 0.193974 -161.7 0.981018 -73.68 0.981018 -73.68 0.194004 -165.6
4.34500000 0.194371 -161.8 0.980939 -73.72 0.980939 -73.72 0.194402 -165.7
4.34600000 0.194770 -161.8 0.980860 -73.77 0.980860 -73.77 0.194800 -165.7
4.34700000 0.195168 -161.9 0.980781 -73.81 0.980781 -73.81 0.195199 -165.7
4.34800000 0.195568 -161.9 0.980701 -73.85 0.980701 -73.85 0.195598 -165.8
4.34900000 0.195968 -161.9 0.980621 -73.89 0.980621 -73.89 0.195998 -165.8
4.35000000 0.196368 -162.0 0.980541 -73.94 0.980541 -73.94 0.196398 -165.9
4.35100000 0.196769 -162.0 0.980461 -73.98 0.980461 -73.98 0.196800 -165.9
4.35200000 0.197171 -162.1 0.980380 -74.02 0.980380 -74.02 0.197201 -166.0
4.35300000 0.197573 -162.1 0.980299 -74.06 0.980299 -74.06 0.197604 -166.0
4.35400000 0.197976 -162.2 0.980217 -74.11 0.980217 -74.11 0.198007 -166.0
4.35500000 0.198380 -162.2 0.980136 -74.15 0.980136 -74.15 0.198410 -166.1
4.35600000 0.198784 -162.3 0.980054 -74.19 0.980054 -74.19 0.198814 -166.1
4.35700000 0.199189 -162.3 0.979972 -74.24 0.979972 -74.24 0.199219 -166.2
4.35800000 0.199594 -162.3 0.979889 -74.28 0.979889 -74.28 0.199625 -166.2
4.35900000 0.200000 -162.4 0.979806 -74.32 0.979806 -74.32 0.200031 -166.2
4.36000000 0.200407 -162.4 0.979723 -74.37 0.979723 -74.37 0.200437 -166.3
4.36100000 0.200814 -162.5 0.979640 -74.41 0.979640 -74.41 0.200845 -166.3
4.36200000 0.201222 -162.5 0.979556 -74.45 0.979556 -74.45 0.201252 -166.4
4.36300000 0.201631 -162.6 0.979472 -74.50 0.979472 -74.50 0.201661 -166.4
4.36400000 0.202040 -162.6 0.979388 -74.54 0.979388 -74.54 0.202070 -166.5
4.36500000 0.202449 -162.7 0.979303 -74.58 0.979303 -74.58 0.202480 -166.5
4.36600000 0.202860 -162.7 0.979218 -74.63 0.979218 -74.63 0.202890 -166.5
4.36700000 0.203271 -162.7 0.979133 -74.67 0.979133 -74.67 0.203301 -166.6
4.36800000 0.203682 -162.8 0.979047 -74.71 0.979047 -74.71 0.203712 -166.6
4.36900000 0.204094 -162.8 0.978962 -74.76 0.978962 -74.76 0.204125 -166.7
4.37000000 0.204507 -162.9 0.978875 -74.80 0.978875 -74.80 0.204537 -166.7
4.37100000 0.204920 -162.9 0.978789 -74.84 0.978789 -74.84 0.204951 -166.8
4.37200000 0.205335 -163.0 0.978702 -74.89 0.978702 -74.89 0.205365 -166.8
4.37300000 0.205749 -163.0 0.978615 -74.93 0.978615 -74.93 0.205780 -166.8
4.37400000 0.206164 -163.1 0.978528 -74.98 0.978528 -74.98 0.206195 -166.9
4.37500000 0.206580 -163.1 0.978440 -75.02 0.978440 -75.02 0.206611 -166.9
4.37600000 0.206997 -163.1 0.978352 -75.06 0.978352 -75.06 0.207027 -167.0
4.37700000 0.207414 -163.2 0.978263 -75.11 0.978263 -75.11 0.207444 -167.0
4.37800000 0.207832 -163.2 0.978175 -75.15 0.978175 -75.15 0.207862 -167.1
4.37900000 0.208250 -163.3 0.978086 -75.20 0.978086 -75.20 0.208281 -167.1
4.38000000 0.208669 -163.3 0.977996 -75.24 0.977996 -75.24 0.208700 -167.1
4.38100000 0.209089 -163.4 0.977907 -75.29 0.977907 -75.29 0.209119 -167.2
4.38200000 0.209509 -163.4 0.977817 -75.33 0.977817 -75.33 0.209540 -167.2
4.38300000 0.209930 -163.5 0.977726 -75.37 0.977726 -75.37 0.209960 -167.3
4.38400000 0.210352 -163.5 0.977636 -75.42 0.977636 -75.42 0.210382 -167.3
4.38500000 0.210774 -163.6 0.977545 -75.46 0.977545 -75.46 0.210804 -167.4
4.38600000 0.211197 -163.6 0.977454 -75.51 0.977454 -75.51 0.211227 -167.4
4.38700000 0.211620 -163.6 0.977362 -75.55 0.977362 -75.55 0.211650 -167.5
4.38800000 0.212044 -163.7 0.977270 -75.60 0.977270 -75.60 0.212074 -167.5
4.38900000 0.212469 -163.7 0.977178 -75.64 0.977178 -75.64 0.212499 -167.5
4.39000000 0.212894 -163.8 0.977085 -75.69 0.977085 -75.69 0.212924 -167.6
4.39100000 0.213320 -163.8 0.976992 -75.73 0.976992 -75.73 0.213350 -167.6
4.39200000 0.213747 -163.9 0.976899 -75.78 0.976899 -75.78 0.213777 -167.7