! Sonnet Data File
! From: emgraph Version : 16.52
! From Emgraph Data: 171106_xz_squiggleX_Res5G_12_EvenBrg
! Data File Written: 11/17/2017 14:56:11
!< HDATE 11/08/2017 11:38:27
!< MDATE 11/08/2017 11:38:27
!< PARAMS
!< dCr = 12.0
!< Squiggle_length = 16.0
!< Holo = 108.0
!< Inter = 15.0
!< Brg_Dist = 174.000026
!< END PARAMS
# GHZ S MA R 50.00000
4.000000000000000 0.0727141287196 -119.4620862610 0.9973503669745 -31.14654026417 0.9973503669765 -31.14654026443 0.0727142043731 -122.8348492617
!< P1 F=4.0 Eeff=(6.53975032 -3.0165e-5) Z0=(50.7196192 1.16963e-4) R=0.01177958 C=0.01558055 
!< P2 F=4.0 Eeff=(6.53975032 -3.0165e-5) Z0=(50.7196192 1.16963e-4) R=0.01177958 C=0.01558055 
4.001000000000000 0.0728578570398 -119.4775707556 0.9973396818636 -31.16135300021 0.9973396818636 -31.16135300021 0.0728577808955 -122.8492869019
4.002000000000001 0.0730018418095 -119.4930680415 0.9973289566232 -31.17618043516 0.9973289566232 -31.17618043516 0.0730016142381 -122.8637408659
4.003000000000000 0.0731460835922 -119.5085781568 0.9973181911013 -31.19102260222 0.9973181911013 -31.19102260222 0.0731457049637 -122.8782111805
4.004000000000000 0.0732905829517 -119.5241011391 0.9973073851436 -31.20587953439 0.9973073851436 -31.20587953439 0.0732900536355 -122.8926978723
4.005000000000000 0.0734353404531 -119.5396370260 0.9972965385955 -31.22075126474 0.9972965385955 -31.22075126474 0.0734346608181 -122.9072009681
4.006000000000000 0.0735803566631 -119.5551858552 0.9972856513015 -31.23563782646 0.9972856513015 -31.23563782646 0.0735795270781 -122.9217204949
4.007000000000001 0.0737256321502 -119.5707476647 0.9972747231055 -31.25053925281 0.9972747231055 -31.25053925281 0.0737246529834 -122.9362564798
4.008000000000000 0.0738711674845 -119.5863224921 0.9972637538508 -31.26545557719 0.9972637538508 -31.26545557719 0.0738700391038 -122.9508089499
4.009000000000000 0.0740169632377 -119.6019103756 0.9972527433799 -31.28038683306 0.9972527433799 -31.28038683306 0.0740156860105 -122.9653779325
4.010000000000001 0.0741630199831 -119.6175113532 0.9972416915347 -31.29533305400 0.9972416915347 -31.29533305400 0.0741615942765 -122.9799634550
4.011000000000000 0.0743093382959 -119.6331254631 0.9972305981565 -31.31029427368 0.9972305981565 -31.31029427368 0.0743077644765 -122.9945655451
4.012000000000000 0.0744559187526 -119.6487527434 0.9972194630858 -31.32527052588 0.9972194630858 -31.32527052588 0.0744541971868 -123.0091842304
4.013000000000000 0.0746027619318 -119.6643932325 0.9972082861625 -31.34026184447 0.9972082861625 -31.34026184447 0.0746008929853 -123.0238195387
4.014000000000000 0.0747498684133 -119.6800469687 0.9971970672258 -31.35526826343 0.9971970672258 -31.35526826343 0.0747478524517 -123.0384714978
4.015000000000001 0.0748972387791 -119.6957139907 0.9971858061141 -31.37028981684 0.9971858061141 -31.37028981684 0.0748950761673 -123.0531401360
4.016000000000000 0.0750448736124 -119.7113943369 0.9971745026653 -31.38532653887 0.9971745026653 -31.38532653887 0.0750425647151 -123.0678254813
4.017000000000000 0.0751927734984 -119.7270880459 0.9971631567165 -31.40037846380 0.9971631567165 -31.40037846380 0.0751903186800 -123.0825275621
4.018000000000001 0.0753409390240 -119.7427951566 0.9971517681041 -31.41544562602 0.9971517681041 -31.41544562602 0.0753383386482 -123.0972464068
4.019000000000000 0.0754893707775 -119.7585157078 0.9971403366637 -31.43052806001 0.9971403366637 -31.43052806001 0.0754866252079 -123.1119820439
4.020000000000000 0.0756380693494 -119.7742497384 0.9971288622305 -31.44562580035 0.9971288622305 -31.44562580035 0.0756351789490 -123.1267345021
4.021000000000000 0.0757870353315 -119.7899972873 0.9971173446386 -31.46073888174 0.9971173446386 -31.46073888174 0.0757840004630 -123.1415038103
4.022000000000000 0.0759362693174 -119.8057583938 0.9971057837217 -31.47586733897 0.9971057837217 -31.47586733897 0.0759330903432 -123.1562899974
4.023000000000001 0.0760857719027 -119.8215330969 0.9970941793126 -31.49101120695 0.9970941793126 -31.49101120695 0.0760824491846 -123.1710930925
4.024000000000000 0.0762355436845 -119.8373214360 0.9970825312435 -31.50617052067 0.9970825312435 -31.50617052067 0.0762320775839 -123.1859131247
4.025000000000000 0.0763855852616 -119.8531234504 0.9970708393458 -31.52134531524 0.9970708393458 -31.52134531524 0.0763819761397 -123.2007501233
4.026000000000001 0.0765358972347 -119.8689391796 0.9970591034502 -31.53653562588 0.9970591034502 -31.53653562588 0.0765321454522 -123.2156041179
4.027000000000000 0.0766864802061 -119.8847686631 0.9970473233867 -31.55174148790 0.9970473233867 -31.55174148790 0.0766825861234 -123.2304751381
4.028000000000000 0.0768373347801 -119.9006119405 0.9970354989845 -31.56696293673 0.9970354989845 -31.56696293673 0.0768332987570 -123.2453632134
4.029000000000000 0.0769884615626 -119.9164690516 0.9970236300720 -31.58220000790 0.9970236300720 -31.58220000790 0.0769842839587 -123.2602683738
4.030000000000000 0.0771398611612 -119.9323400362 0.9970117164771 -31.59745273705 0.9970117164771 -31.59745273705 0.0771355423356 -123.2751906492
4.031000000000001 0.0772915341855 -119.9482249342 0.9969997580268 -31.61272115993 0.9969997580268 -31.61272115993 0.0772870744969 -123.2901300697
4.032000000000000 0.0774434812466 -119.9641237857 0.9969877545473 -31.62800531238 0.9969877545473 -31.62800531238 0.0774388810534 -123.3050866656
4.033000000000000 0.0775957029577 -119.9800366307 0.9969757058641 -31.64330523037 0.9969757058641 -31.64330523037 0.0775909626179 -123.3200604673
4.034000000000000 0.0777481999336 -119.9959635093 0.9969636118021 -31.65862094996 0.9969636118021 -31.65862094996 0.0777433198047 -123.3350515051
4.035000000000000 0.0779009727910 -120.0119044620 0.9969514721851 -31.67395250734 0.9969514721851 -31.67395250734 0.0778959532302 -123.3500598097
4.036000000000000 0.0780540221483 -120.0278595291 0.9969392868365 -31.68929993879 0.9969392868365 -31.68929993879 0.0780488635124 -123.3650854119
4.037000000000000 0.0782073486259 -120.0438287511 0.9969270555787 -31.70466328071 0.9969270555787 -31.70466328071 0.0782020512712 -123.3801283426
4.038000000000000 0.0783609528458 -120.0598121685 0.9969147782334 -31.72004256960 0.9969147782334 -31.72004256960 0.0783555171284 -123.3951886328
4.039000000000001 0.0785148354320 -120.0758098220 0.9969024546216 -31.73543784209 0.9969024546216 -31.73543784209 0.0785092617075 -123.4102663136
4.040000000000000 0.0786689970103 -120.0918217524 0.9968900845633 -31.75084913489 0.9968900845633 -31.75084913489 0.0786632856340 -123.4253614163
4.041000000000000 0.0788234382083 -120.1078480006 0.9968776678780 -31.76627648485 0.9968776678780 -31.76627648485 0.0788175895349 -123.4404739724
4.042000000000000 0.0789781596556 -120.1238886075 0.9968652043842 -31.78171992892 0.9968652043842 -31.78171992892 0.0789721740396 -123.4556040133
4.043000000000000 0.0791331619834 -120.1399436141 0.9968526938998 -31.79717950417 0.9968526938998 -31.79717950417 0.0791270397788 -123.4707515708
4.044000000000000 0.0792884458249 -120.1560130617 0.9968401362417 -31.81265524776 0.9968401362417 -31.81265524776 0.0792821873854 -123.4859166766
4.045000000000000 0.0794440118152 -120.1720969915 0.9968275312262 -31.82814719698 0.9968275312262 -31.82814719698 0.0794376174942 -123.5010993628
4.046000000000000 0.0795998605914 -120.1881954449 0.9968148786686 -31.84365538924 0.9968148786686 -31.84365538924 0.0795933307416 -123.5162996614
4.047000000000001 0.0797559927921 -120.2043084633 0.9968021783835 -31.85917986205 0.9968021783835 -31.85917986205 0.0797493277661 -123.5315176046
4.048000000000000 0.0799124090582 -120.2204360883 0.9967894301848 -31.87472065304 0.9967894301848 -31.87472065304 0.0799056092081 -123.5467532248
4.049000000000000 0.0800691100323 -120.2365783615 0.9967766338854 -31.89027779996 0.9967766338854 -31.89027779996 0.0800621757099 -123.5620065544
4.050000000000000 0.0802260963589 -120.2527353247 0.9967637892975 -31.90585134065 0.9967637892975 -31.90585134065 0.0802190279154 -123.5772776262
4.051000000000000 0.0803833686845 -120.2689070198 0.9967508962325 -31.92144131311 0.9967508962325 -31.92144131311 0.0803761664709 -123.5925664728
4.052000000000000 0.0805409276573 -120.2850934888 0.9967379545007 -31.93704775541 0.9967379545007 -31.93704775541 0.0805335920242 -123.6078731271
4.053000000000000 0.0806987739278 -120.3012947737 0.9967249639120 -31.95267070576 0.9967249639120 -31.95267070576 0.0806913052254 -123.6231976223
4.054000000000000 0.0808569081481 -120.3175109166 0.9967119242752 -31.96831020248 0.9967119242752 -31.96831020248 0.0808493067262 -123.6385399914
4.055000000000001 0.0810153309723 -120.3337419600 0.9966988353982 -31.98396628402 0.9966988353982 -31.98396628402 0.0810075971803 -123.6539002678
4.056000000000000 0.0811740430567 -120.3499879461 0.9966856970884 -31.99963898893 0.9966856970884 -31.99963898893 0.0811661772436 -123.6692784849
4.057000000000000 0.0813330450592 -120.3662489174 0.9966725091519 -32.01532835590 0.9966725091519 -32.01532835590 0.0813250475737 -123.6846746764
4.058000000000000 0.0814923376398 -120.3825249166 0.9966592713944 -32.03103442370 0.9966592713944 -32.03103442370 0.0814842088301 -123.7000888759
4.059000000000000 0.0816519214606 -120.3988159864 0.9966459836204 -32.04675723126 0.9966459836204 -32.04675723126 0.0816436616747 -123.7155211172
4.060000000000000 0.0818117971856 -120.4151221695 0.9966326456336 -32.06249681760 0.9966326456336 -32.06249681760 0.0818034067708 -123.7309714345
4.061000000000000 0.0819719654805 -120.4314435088 0.9966192572371 -32.07825322188 0.9966192572371 -32.07825322188 0.0819634447841 -123.7464398618
4.062000000000000 0.0821324270135 -120.4477800475 0.9966058182328 -32.09402648338 0.9966058182328 -32.09402648338 0.0821237763820 -123.7619264335
4.063000000000001 0.0822931824543 -120.4641318286 0.9965923284219 -32.10981664148 0.9965923284219 -32.10981664148 0.0822844022343 -123.7774311839
4.064000000000000 0.0824542324750 -120.4804988953 0.9965787876048 -32.12562373570 0.9965787876048 -32.12562373570 0.0824453230123 -123.7929541477
4.065000000000000 0.0826155777495 -120.4968812911 0.9965651955807 -32.14144780567 0.9965651955807 -32.14144780567 0.0826065393897 -123.8084953595
4.066000000000000 0.0827772189537 -120.5132790593 0.9965515521484 -32.15728889116 0.9965515521484 -32.15728889116 0.0827680520420 -123.8240548541
4.067000000000000 0.0829391567656 -120.5296922436 0.9965378571053 -32.17314703204 0.9965378571053 -32.17314703204 0.0829298616468 -123.8396326666
4.068000000000001 0.0831013918652 -120.5461208876 0.9965241102483 -32.18902226831 0.9965241102483 -32.18902226831 0.0830919688838 -123.8552288321
4.069000000000000 0.0832639249346 -120.5625650351 0.9965103113732 -32.20491464011 0.9965103113732 -32.20491464011 0.0832543744347 -123.8708433859
4.070000000000000 0.0834267566578 -120.5790247300 0.9964964602749 -32.22082418768 0.9964964602749 -32.22082418768 0.0834170789830 -123.8864763634
4.071000000000001 0.0835898877211 -120.5955000163 0.9964825567476 -32.23675095140 0.9964825567476 -32.23675095140 0.0835800832147 -123.9021278001
4.072000000000000 0.0837533188127 -120.6119909382 0.9964686005843 -32.25269497177 0.9964686005843 -32.25269497177 0.0837433878176 -123.9177977318
4.073000000000000 0.0839170506227 -120.6284975399 0.9964545915773 -32.26865628942 0.9964545915773 -32.26865628942 0.0839069934815 -123.9334861943
4.074000000000000 0.0840810838436 -120.6450198657 0.9964405295178 -32.28463494509 0.9964405295178 -32.28463494509 0.0840709008984 -123.9491932236
4.075000000000000 0.0842454191699 -120.6615579601 0.9964264141963 -32.30063097966 0.9964264141963 -32.30063097966 0.0842351107625 -123.9649188559
4.076000000000001 0.0844100572980 -120.6781118678 0.9964122454022 -32.31664443414 0.9964122454022 -32.31664443414 0.0843996237698 -123.9806631273
4.077000000000000 0.0845749989266 -120.6946816333 0.9963980229240 -32.33267534966 0.9963980229240 -32.33267534966 0.0845644406186 -123.9964260745
4.078000000000000 0.0847402447565 -120.7112673016 0.9963837465492 -32.34872376748 0.9963837465492 -32.34872376748 0.0847295620093 -124.0122077338
4.079000000000001 0.0849057954904 -120.7278689175 0.9963694160646 -32.36478972898 0.9963694160646 -32.36478972898 0.0848949886444 -124.0280081422
4.080000000000000 0.0850716518334 -120.7444865261 0.9963550312558 -32.38087327568 0.9963550312558 -32.38087327568 0.0850607212284 -124.0438273363
4.081000000000000 0.0852378144926 -120.7611201726 0.9963405919075 -32.39697444923 0.9963405919075 -32.39697444923 0.0852267604681 -124.0596653533
4.082000000000000 0.0854042841773 -120.7777699022 0.9963260978035 -32.41309329140 0.9963260978035 -32.41309329140 0.0853931070724 -124.0755222303
4.083000000000000 0.0855710615987 -120.7944357603 0.9963115487267 -32.42922984410 0.9963115487267 -32.42922984410 0.0855597617522 -124.0913980046
4.084000000000001 0.0857381474705 -120.8111177926 0.9962969444588 -32.44538414936 0.9962969444588 -32.44538414936 0.0857267252208 -124.1072927138
4.085000000000000 0.0859055425084 -120.8278160445 0.9962822847807 -32.46155624935 0.9962822847807 -32.46155624935 0.0858939981935 -124.1232063953
4.086000000000000 0.0860732474302 -120.8445305620 0.9962675694723 -32.47774618637 0.9962675694723 -32.47774618637 0.0860615813878 -124.1391390870
4.087000000000001 0.0862412629560 -120.8612613907 0.9962527983126 -32.49395400284 0.9962527983126 -32.49395400284 0.0862294755233 -124.1550908267
4.088000000000000 0.0864095898081 -120.8780085769 0.9962379710795 -32.51017974134 0.9962379710795 -32.51017974134 0.0863976813219 -124.1710616526
4.089000000000000 0.0865782287108 -120.8947721665 0.9962230875499 -32.52642344456 0.9962230875499 -32.52642344456 0.0865661995077 -124.1870516029
4.090000000000000 0.0867471803908 -120.9115522059 0.9962081474997 -32.54268515532 0.9962081474997 -32.54268515532 0.0867350308069 -124.2030607159
4.091000000000000 0.0869164455769 -120.9283487414 0.9961931507039 -32.55896491660 0.9961931507039 -32.55896491660 0.0869041759480 -124.2190890301
4.092000000000001 0.0870860250002 -120.9451618195 0.9961780969364 -32.57526277149 0.9961780969364 -32.57526277149 0.0870736356617 -124.2351365842
4.093000000000000 0.0872559193940 -120.9619914868 0.9961629859702 -32.59157876323 0.9961629859702 -32.59157876323 0.0872434106809 -124.2512034170
4.094000000000000 0.0874261294938 -120.9788377901 0.9961478175771 -32.60791293519 0.9961478175771 -32.60791293519 0.0874135017407 -124.2672895675
4.095000000000001 0.0875966560374 -120.9957007762 0.9961325915280 -32.62426533087 0.9961325915280 -32.62426533087 0.0875839095785 -124.2833950748
4.096000000000000 0.0877674997647 -121.0125804922 0.9961173075927 -32.64063599392 0.9961173075927 -32.64063599392 0.0877546349340 -124.2995199783
4.097000000000000 0.0879386614180 -121.0294769851 0.9961019655402 -32.65702496811 0.9961019655402 -32.65702496811 0.0879256785490 -124.3156643173
4.098000000000000 0.0881101417419 -121.0463903022 0.9960865651381 -32.67343229737 0.9960865651381 -32.67343229737 0.0880970411677 -124.3318281314
4.099000000000000 0.0882819414831 -121.0633204909 0.9960711061532 -32.68985802576 0.9960711061532 -32.68985802576 0.0882687235366 -124.3480114604
4.100000000000001 0.0884540613907 -121.0802675987 0.9960555883512 -32.70630219746 0.9960555883512 -32.70630219746 0.0884407264043 -124.3642143442
4.101000000000000 0.0886265022162 -121.0972316733 0.9960400114967 -32.72276485682 0.9960400114967 -32.72276485682 0.0886130505219 -124.3804368228
4.102000000000000 0.0887992647132 -121.1142127623 0.9960243753533 -32.73924604830 0.9960243753533 -32.73924604830 0.0887856966426 -124.3966789364
4.103000000000001 0.0889723496377 -121.1312109137 0.9960086796836 -32.75574581653 0.9960086796836 -32.75574581653 0.0889586655221 -124.4129407255
4.104000000000000 0.0891457577480 -121.1482261755 0.9959929242488 -32.77226420626 0.9959929242488 -32.77226420626 0.0891319579184 -124.4292222305
4.105000000000000 0.0893194898047 -121.1652585959 0.9959771088095 -32.78880126239 0.9959771088095 -32.78880126239 0.0893055745916 -124.4455234922
4.106000000000000 0.0894935465708 -121.1823082231 0.9959612331250 -32.80535702997 0.9959612331250 -32.80535702997 0.0894795163045 -124.4618445514
4.107000000000000 0.0896679288117 -121.1993751056 0.9959452969533 -32.82193155416 0.9959452969533 -32.82193155416 0.0896537838218 -124.4781854490
4.108000000000001 0.0898426372948 -121.2164592919 0.9959293000516 -32.83852488031 0.9959293000516 -32.83852488031 0.0898283779110 -124.4945462264
4.109000000000000 0.0900176727904 -121.2335608306 0.9959132421759 -32.85513705387 0.9959132421759 -32.85513705387 0.0900032993416 -124.5109269247
4.110000000000000 0.0901930360707 -121.2506797708 0.9958971230812 -32.87176812047 0.9958971230812 -32.87176812047 0.0901785488858 -124.5273275854
4.111000000000001 0.0903687279106 -121.2678161612 0.9958809425212 -32.88841812587 0.9958809425212 -32.88841812587 0.0903541273178 -124.5437482503
4.112000000000000 0.0905447490872 -121.2849700509 0.9958647002485 -32.90508711596 0.9958647002485 -32.90508711596 0.0905300354144 -124.5601889611
4.113000000000000 0.0907211003799 -121.3021414893 0.9958483960149 -32.92177513681 0.9958483960149 -32.92177513681 0.0907062739550 -124.5766497599
4.114000000000000 0.0908977825709 -121.3193305256 0.9958320295706 -32.93848223460 0.9958320295706 -32.93848223460 0.0908828437209 -124.5931306886
4.115000000000000 0.0910747964444 -121.3365372093 0.9958156006650 -32.95520845569 0.9958156006650 -32.95520845569 0.0910597454963 -124.6096317896
4.116000000000001 0.0912521427872 -121.3537615901 0.9957991090463 -32.97195384656 0.9957991090463 -32.97195384656 0.0912369800675 -124.6261531055
4.117000000000000 0.0914298223886 -121.3710037178 0.9957825544615 -32.98871845386 0.9957825544615 -32.98871845386 0.0914145482234 -124.6426946787
4.118000000000000 0.0916078360402 -121.3882636423 0.9957659366565 -33.00550232438 0.9957659366565 -33.00550232438 0.0915924507552 -124.6592565522
4.119000000000001 0.0917861845361 -121.4055414136 0.9957492553759 -33.02230550505 0.9957492553759 -33.02230550505 0.0917706884568 -124.6758387688
4.120000000000000 0.0919648686728 -121.4228370820 0.9957325103633 -33.03912804297 0.9957325103633 -33.03912804297 0.0919492621244 -124.6924413716
4.121000000000000 0.0921438892495 -121.4401506977 0.9957157013612 -33.05596998538 0.9957157013612 -33.05596998538 0.0921281725565 -124.7090644041
4.122000000000000 0.0923232470675 -121.4574823112 0.9956988281107 -33.07283137966 0.9956988281107 -33.07283137966 0.0923074205543 -124.7257079095
4.123000000000000 0.0925029429309 -121.4748319732 0.9956818903519 -33.08971227337 0.9956818903519 -33.08971227337 0.0924870069215 -124.7423719315
4.124000000000001 0.0926829776462 -121.4921997344 0.9956648878236 -33.10661271419 0.9956648878236 -33.10661271419 0.0926669324641 -124.7590565140
4.125000000000000 0.0928633520224 -121.5095856457 0.9956478202635 -33.12353274998 0.9956478202635 -33.12353274998 0.0928471979909 -124.7757617008
4.126000000000000 0.0930440668709 -121.5269897582 0.9956306874080 -33.14047242874 0.9956306874080 -33.14047242874 0.0930278043128 -124.7924875361
4.127000000000001 0.0932251230059 -121.5444121230 0.9956134889924 -33.15743179862 0.9956134889924 -33.15743179862 0.0932087522437 -124.8092340642
4.128000000000000 0.0934065212438 -121.5618527916 0.9955962247508 -33.17441090794 0.9955962247508 -33.17441090794 0.0933900425997 -124.8260013295
4.129000000000000 0.0935882624037 -121.5793118153 0.9955788944159 -33.19140980516 0.9955788944159 -33.19140980516 0.0935716761995 -124.8427893767
4.130000000000000 0.0937703473073 -121.5967892458 0.9955614977194 -33.20842853891 0.9955614977194 -33.20842853891 0.0937536538645 -124.8595982506
4.131000000000000 0.0939527767789 -121.6142851350 0.9955440343917 -33.22546715797 0.9955440343917 -33.22546715797 0.0939359764184 -124.8764279961
4.132000000000001 0.0941355516451 -121.6317995346 0.9955265041619 -33.24252571127 0.9955265041619 -33.24252571127 0.0941186446877 -124.8932786585
4.133000000000000 0.0943186727354 -121.6493324969 0.9955089067579 -33.25960424791 0.9955089067579 -33.25960424791 0.0943016595014 -124.9101502829
4.134000000000000 0.0945021408817 -121.6668840740 0.9954912419064 -33.27670281714 0.9954912419064 -33.27670281714 0.0944850216911 -124.9270429150
4.135000000000001 0.0946859569186 -121.6844543182 0.9954735093327 -33.29382146837 0.9954735093327 -33.29382146837 0.0946687320909 -124.9439566004
4.136000000000000 0.0948701216832 -121.7020432822 0.9954557087610 -33.31096025118 0.9954557087610 -33.31096025118 0.0948527915378 -124.9608913849
4.137000000000000 0.0950546360153 -121.7196510186 0.9954378399142 -33.32811921531 0.9954378399142 -33.32811921531 0.0950372008710 -124.9778473145
4.138000000000000 0.0952395007572 -121.7372775802 0.9954199025138 -33.34529841063 0.9954199025138 -33.34529841063 0.0952219609327 -124.9948244355
4.139000000000000 0.0954247167542 -121.7549230200 0.9954018962802 -33.36249788722 0.9954018962802 -33.36249788722 0.0954070725675 -125.0118227942
4.140000000000001 0.0956102848537 -121.7725873911 0.9953838209323 -33.37971769528 0.9953838209323 -33.37971769528 0.0955925366227 -125.0288424371
4.141000000000000 0.0957962059063 -121.7902707469 0.9953656761881 -33.39695788520 0.9953656761881 -33.39695788520 0.0957783539484 -125.0458834110
4.142000000000000 0.0959824807648 -121.8079731407 0.9953474617637 -33.41421850753 0.9953474617637 -33.41421850753 0.0959645253972 -125.0629457628
4.143000000000001 0.0961691102851 -121.8256946262 0.9953291773744 -33.43149961297 0.9953291773744 -33.43149961297 0.0961510518245 -125.0800295395
4.144000000000000 0.0963560953255 -121.8434352571 0.9953108227340 -33.44880125239 0.9953108227340 -33.44880125239 0.0963379340883 -125.0971347884
4.145000000000000 0.0965434367470 -121.8611950873 0.9952923975550 -33.46612347683 0.9952923975550 -33.46612347683 0.0965251730492 -125.1142615570
4.146000000000000 0.0967311354135 -121.8789741710 0.9952739015485 -33.48346633751 0.9952739015485 -33.48346633751 0.0967127695709 -125.1314098928
4.147000000000000 0.0969191921915 -121.8967725622 0.9952553344243 -33.50082988579 0.9952553344243 -33.50082988579 0.0969007245193 -125.1485798436
4.148000000000001 0.0971076079503 -121.9145903155 0.9952366958910 -33.51821417321 0.9952366958910 -33.51821417321 0.0970890387634 -125.1657714575
4.149000000000000 0.0972963835617 -121.9324274853 0.9952179856555 -33.53561925148 0.9952179856555 -33.53561925148 0.0972777131748 -125.1829847826
4.150000000000000 0.0974855199006 -121.9502841263 0.9951992034238 -33.55304517248 0.9951992034238 -33.55304517248 0.0974667486279 -125.2002198672
4.151000000000001 0.0976750178444 -121.9681602935 0.9951803489002 -33.57049198825 0.9951803489002 -33.57049198825 0.0976561459999 -125.2174767599
4.152000000000000 0.0978648782734 -121.9860560418 0.9951614217877 -33.58795975102 0.9951614217877 -33.58795975102 0.0978459061706 -125.2347555094
4.153000000000000 0.0980551020706 -122.0039714264 0.9951424217881 -33.60544851316 0.9951424217881 -33.60544851316 0.0980360300227 -125.2520561645
4.154000000000000 0.0982456901219 -122.0219065027 0.9951233486015 -33.62295832724 0.9951233486015 -33.62295832724 0.0982265184417 -125.2693787744
4.155000000000000 0.0984366433159 -122.0398613262 0.9951042019268 -33.64048924599 0.9951042019268 -33.64048924599 0.0984173723158 -125.2867233883
4.156000000000001 0.0986279625441 -122.0578359526 0.9950849814616 -33.65804132231 0.9950849814616 -33.65804132231 0.0986085925363 -125.3040900556
4.157000000000000 0.0988196487007 -122.0758304378 0.9950656869019 -33.67561460928 0.9950656869019 -33.67561460928 0.0988001799970 -125.3214788261
4.158000000000000 0.0990117026828 -122.0938448376 0.9950463179423 -33.69320916016 0.9950463179423 -33.69320916016 0.0989921355946 -125.3388897495
4.159000000000001 0.0992041253904 -122.1118792084 0.9950268742761 -33.71082502837 0.9950268742761 -33.71082502837 0.0991844602287 -125.3563228758
4.160000000000000 0.0993969177263 -122.1299336064 0.9950073555951 -33.72846226751 0.9950073555951 -33.72846226751 0.0993771548019 -125.3737782553
4.161000000000000 0.0995900805962 -122.1480080882 0.9949877615896 -33.74612093137 0.9949877615896 -33.74612093137 0.0995702202194 -125.3912559383
4.162000000000000 0.0997836149085 -122.1661027104 0.9949680919486 -33.76380107390 0.9949680919486 -33.76380107390 0.0997636573894 -125.4087559755
4.163000000000000 0.0999775215749 -122.1842175300 0.9949483463595 -33.78150274924 0.9949483463595 -33.78150274924 0.0999574672230 -125.4262784175
4.164000000000001 0.1001718015095 -122.2023526039 0.9949285245083 -33.79922601169 0.9949285245083 -33.79922601169 0.1001516506342 -125.4438233154
4.165000000000000 0.1003664556297 -122.2205079893 0.9949086260796 -33.81697091576 0.9949086260796 -33.81697091576 0.1003462085400 -125.4613907204
4.166000000000000 0.1005614848556 -122.2386837435 0.9948886507564 -33.83473751612 0.9948886507564 -33.83473751612 0.1005411418600 -125.4789806837
4.167000000000000 0.1007568901103 -122.2568799242 0.9948685982203 -33.85252586761 0.9948685982203 -33.85252586761 0.1007364515171 -125.4965932569
4.168000000000000 0.1009526723198 -122.2750965891 0.9948484681514 -33.87033602527 0.9948484681514 -33.87033602527 0.1009321384370 -125.5142284918
4.169000000000000 0.1011488324133 -122.2933337959 0.9948282602282 -33.88816804433 0.9948282602282 -33.88816804433 0.1011282035483 -125.5318864403
4.170000000000000 0.1013453713225 -122.3115916029 0.9948079741279 -33.90602198018 0.9948079741279 -33.90602198018 0.1013246477827 -125.5495671545
4.171000000000000 0.1015422899826 -122.3298700681 0.9947876095260 -33.92389788840 0.9947876095260 -33.92389788840 0.1015214720746 -125.5672706868
4.172000000000001 0.1017395893313 -122.3481692501 0.9947671660965 -33.94179582476 0.9947671660965 -33.94179582476 0.1017186773618 -125.5849970896
4.173000000000000 0.1019372703097 -122.3664892074 0.9947466435119 -33.95971584522 0.9947466435119 -33.95971584522 0.1019162645849 -125.6027464157
4.174000000000000 0.1021353338617 -122.3848299988 0.9947260414433 -33.97765800591 0.9947260414433 -33.97765800591 0.1021142346873 -125.6205187180
4.175000000000000 0.1023337809343 -122.4031916832 0.9947053595599 -33.99562236316 0.9947053595599 -33.99562236316 0.1023125886157 -125.6383140497
4.176000000000000 0.1025326124774 -122.4215743197 0.9946845975298 -34.01360897349 0.9946845975298 -34.01360897349 0.1025113273198 -125.6561324640
4.177000000000000 0.1027318294442 -122.4399779678 0.9946637550191 -34.03161789359 0.9946637550191 -34.03161789359 0.1027104517523 -125.6739740144
4.178000000000000 0.1029314327906 -122.4584026867 0.9946428316925 -34.04964918036 0.9946428316925 -34.04964918036 0.1029099628690 -125.6918387548
4.179000000000000 0.1031314234760 -122.4768485363 0.9946218272133 -34.06770289088 0.9946218272133 -34.06770289088 0.1031098616286 -125.7097267389
4.180000000000001 0.1033318024626 -122.4953155764 0.9946007412430 -34.08577908241 0.9946007412430 -34.08577908241 0.1033101489931 -125.7276380210
4.181000000000000 0.1035325707156 -122.5138038670 0.9945795734415 -34.10387781242 0.9945795734415 -34.10387781242 0.1035108259276 -125.7455726553
4.182000000000000 0.1037337292037 -122.5323134683 0.9945583234671 -34.12199913856 0.9945583234671 -34.12199913856 0.1037118934000 -125.7635306964
4.183000000000000 0.1039352788983 -122.5508444407 0.9945369909766 -34.14014311869 0.9945369909766 -34.14014311869 0.1039133523817 -125.7815121990
4.184000000000000 0.1041372207741 -122.5693968448 0.9945155756251 -34.15830981083 0.9945155756251 -34.15830981083 0.1041152038470 -125.7995172181
4.185000000000000 0.1043395558091 -122.5879707415 0.9944940770661 -34.17649927322 0.9944940770661 -34.17649927322 0.1043174487734 -125.8175458088
4.186000000000000 0.1045422849842 -122.6065661916 0.9944724949513 -34.19471156430 0.9944724949513 -34.19471156430 0.1045200881416 -125.8355980264
4.187000000000000 0.1047454092835 -122.6251832564 0.9944508289310 -34.21294674269 0.9944508289310 -34.21294674269 0.1047231229353 -125.8536739266
4.188000000000001 0.1049489296944 -122.6438219971 0.9944290786536 -34.23120486721 0.9944290786536 -34.23120486721 0.1049265541417 -125.8717735651
4.189000000000000 0.1051528472075 -122.6624824753 0.9944072437661 -34.24948599689 0.9944072437661 -34.24948599689 0.1051303827508 -125.8898969978
4.190000000000000 0.1053571628165 -122.6811647527 0.9943853239135 -34.26779019094 0.9943853239135 -34.26779019094 0.1053346097561 -125.9080442810
4.191000000000000 0.1055618775183 -122.6998688913 0.9943633187393 -34.28611750877 0.9943633187393 -34.28611750877 0.1055392361541 -125.9262154711
4.192000000000000 0.1057669923131 -122.7185949531 0.9943412278854 -34.30446801001 0.9943412278854 -34.30446801001 0.1057442629448 -125.9444106246
4.193000000000001 0.1059725082044 -122.7373430004 0.9943190509918 -34.32284175448 0.9943190509918 -34.32284175448 0.1059496911311 -125.9626297985
4.194000000000000 0.1061784261987 -122.7561130959 0.9942967876969 -34.34123880220 0.9942967876969 -34.34123880220 0.1061555217194 -125.9808730497
4.195000000000000 0.1063847473060 -122.7749053020 0.9942744376373 -34.35965921338 0.9942744376373 -34.35965921338 0.1063617557193 -125.9991404355
4.196000000000001 0.1065914725396 -122.7937196818 0.9942520004479 -34.37810304845 0.9942520004479 -34.37810304845 0.1065683941437 -126.0174320134
4.197000000000000 0.1067986029158 -122.8125562983 0.9942294757619 -34.39657036806 0.9942294757619 -34.39657036806 0.1067754380087 -126.0357478410
4.198000000000000 0.1070061394546 -122.8314152148 0.9942068632107 -34.41506123302 0.9942068632107 -34.41506123302 0.1069828883337 -126.0540879762
4.199000000000000 0.1072140831791 -122.8502964947 0.9941841624240 -34.43357570438 0.9941841624240 -34.43357570438 0.1071907461416 -126.0724524773
4.200000000000000 0.1074224351156 -122.8692002019 0.9941613730296 -34.45211384339 0.9941613730296 -34.45211384339 0.1073990124585 -126.0908414024