! Sonnet Data File
! From: emgraph Version : 16.52
! From Emgraph Data: 171122transmon_trace_Symme
! Data File Written: 11/23/2017 09:58:58
!< HDATE 11/22/2017 17:49:49
!< MDATE 11/22/2017 17:49:49
!< PARAMS
!< Lj = 15.24
!< Gap = 14.0
!< Width = 10.0
!< END PARAMS
# GHZ S MA R 51.90000
8.570000000000000 0.0037757862662 179.18919771162 0.9999874010371 -78.83129512658 0.9999874010365 -78.83129512649 0.0037738929164 -156.9872299187
!< P1 F=8.57 Eeff=(6.44691028 -2.9786e-5) Z0=(51.7997052 1.19085e-4) R=0.0 C=0.0 
!< P2 F=8.57 Eeff=(6.44691028 -2.9786e-5) Z0=(51.7997052 1.19085e-4) R=0.0 C=0.0 
8.570025000000001 0.0037789980740 179.19920824537 0.9999873868910 -78.83171229678 0.9999873868910 -78.83171229678 0.0037771055114 -156.9980234655
8.570050000000000 0.0037822129638 179.20920971637 0.9999873726617 -78.83212963915 0.9999873726617 -78.83212963915 0.0037803211703 -157.0088100111
8.570075000000001 0.0037854308265 179.21920257077 0.9999873584081 -78.83254714841 0.9999873584081 -78.83254714841 0.0037835398011 -157.0195883285
8.570100000000000 0.0037886516665 179.22918681963 0.9999873441303 -78.83296482482 0.9999873441303 -78.83296482482 0.0037867614083 -157.0303584299
8.570125000000001 0.0037918754873 179.23916247122 0.9999873298280 -78.83338266858 0.9999873298280 -78.83338266858 0.0037899859953 -157.0411203245
8.570150000000000 0.0037951022930 179.24912953538 0.9999873155014 -78.83380067992 0.9999873155014 -78.83380067992 0.0037932135662 -157.0518740225
8.570175000000001 0.0037983320874 179.25908802235 0.9999873011503 -78.83421885907 0.9999873011503 -78.83421885907 0.0037964441249 -157.0626195337
8.570200000000000 0.0038015648742 179.26903794042 0.9999872867746 -78.83463720626 0.9999872867746 -78.83463720626 0.0037996776749 -157.0733568674
8.570225000000001 0.0038048006565 179.27897929665 0.9999872723745 -78.83505572165 0.9999872723745 -78.83505572165 0.0038029142195 -157.0840860310
8.570250000000000 0.0038080394400 179.28891210685 0.9999872579497 -78.83547440558 0.9999872579497 -78.83547440558 0.0038061537644 -157.0948070401
8.570275000000001 0.0038112812268 179.29883637434 0.9999872435003 -78.83589325818 0.9999872435003 -78.83589325818 0.0038093963117 -157.1055198992
8.570300000000001 0.0038145260208 179.30875210754 0.9999872290261 -78.83631227966 0.9999872290261 -78.83631227966 0.0038126418651 -157.1162246188
8.570325000000000 0.0038177738273 179.31865932195 0.9999872145272 -78.83673147035 0.9999872145272 -78.83673147035 0.0038158904301 -157.1269212116
8.570350000000001 0.0038210246491 179.32855802218 0.9999872000034 -78.83715083040 0.9999872000034 -78.83715083040 0.0038191420094 -157.1376096850
8.570375000000000 0.0038242784898 179.33844821719 0.9999871854549 -78.83757036002 0.9999871854549 -78.83757036002 0.0038223966066 -157.1482900471
8.570400000000001 0.0038275353541 179.34832991950 0.9999871708814 -78.83799005949 0.9999871708814 -78.83799005949 0.0038256542266 -157.1589623107
8.570425000000000 0.0038307952457 179.35820313541 0.9999871562830 -78.83840992902 0.9999871562830 -78.83840992902 0.0038289148728 -157.1696264852
8.570450000000001 0.0038340581667 179.36806787127 0.9999871416596 -78.83882996874 0.9999871416596 -78.83882996874 0.0038321785475 -157.1802825738
8.570475000000000 0.0038373241242 179.37792414409 0.9999871270111 -78.83925017906 0.9999871270111 -78.83925017906 0.0038354452577 -157.1909305963
8.570500000000001 0.0038405931199 179.38777195770 0.9999871123375 -78.83967056008 0.9999871123375 -78.83967056008 0.0038387150052 -157.2015705557
8.570525000000000 0.0038438651590 179.39761132434 0.9999870976388 -78.84009111210 0.9999870976388 -78.84009111210 0.0038419877951 -157.2122024654
8.570550000000001 0.0038471402445 179.40744224990 0.9999870829148 -78.84051183530 0.9999870829148 -78.84051183530 0.0038452636305 -157.2228263328
8.570575000000000 0.0038504183803 179.41726474380 0.9999870681656 -78.84093272990 0.9999870681656 -78.84093272990 0.0038485425151 -157.2334421663
8.570600000000001 0.0038536995702 179.42707881589 0.9999870533912 -78.84135379612 0.9999870533912 -78.84135379612 0.0038518244529 -157.2440499749
8.570625000000000 0.0038569838188 179.43688447567 0.9999870385913 -78.84177503424 0.9999870385913 -78.84177503424 0.0038551094485 -157.2546497715
8.570650000000001 0.0038602711299 179.44668173238 0.9999870237660 -78.84219644448 0.9999870237660 -78.84219644448 0.0038583975056 -157.2652415644
8.570675000000001 0.0038635615071 179.45647059456 0.9999870089154 -78.84261802705 0.9999870089154 -78.84261802705 0.0038616886280 -157.2758253620
8.570700000000000 0.0038668549557 179.46625107425 0.9999869940392 -78.84303978225 0.9999869940392 -78.84303978225 0.0038649828207 -157.2864011779
8.570725000000001 0.0038701514769 179.47602317257 0.9999869791374 -78.84346171015 0.9999869791374 -78.84346171015 0.0038682800850 -157.2969690131
8.570750000000000 0.0038734510781 179.48578690874 0.9999869642100 -78.84388381119 0.9999869642100 -78.84388381119 0.0038715804284 -157.3075288876
8.570775000000001 0.0038767537605 179.49554228335 0.9999869492570 -78.84430608543 0.9999869492570 -78.84430608543 0.0038748838521 -157.3180808025
8.570800000000000 0.0038800595294 179.50528931051 0.9999869342783 -78.84472853319 0.9999869342783 -78.84472853319 0.0038781903613 -157.3286247705
8.570825000000001 0.0038833683886 179.51502799622 0.9999869192738 -78.84515115469 0.9999869192738 -78.84515115469 0.0038814999599 -157.3391608020
8.570850000000000 0.0038866803420 179.52475835111 0.9999869042435 -78.84557395014 0.9999869042435 -78.84557395014 0.0038848126516 -157.3496889040
8.570875000000001 0.0038899953932 179.53448038203 0.9999868891874 -78.84599691978 0.9999868891874 -78.84599691978 0.0038881284404 -157.3602090867
8.570900000000000 0.0038933135472 179.54419410143 0.9999868741053 -78.84642006388 0.9999868741053 -78.84642006388 0.0038914473308 -157.3707213606
8.570925000000001 0.0038966348075 179.55389951563 0.9999868589973 -78.84684338264 0.9999868589973 -78.84684338264 0.0038947693267 -157.3812257350
8.570950000000000 0.0038999591782 179.56359663475 0.9999868438632 -78.84726687631 0.9999868438632 -78.84726687631 0.0038980944320 -157.3917222189
8.570975000000001 0.0039032866642 179.57328546934 0.9999868287031 -78.84769054517 0.9999868287031 -78.84769054517 0.0039014226516 -157.4022108242
8.571000000000000 0.0039066172668 179.58296602104 0.9999868135169 -78.84811438930 0.9999868135169 -78.84811438930 0.0039047539869 -157.4126915513
8.571025000000001 0.0039099509931 179.59263830727 0.9999867983045 -78.84853840912 0.9999867983045 -78.84853840912 0.0039080884450 -157.4231644198
8.571050000000001 0.0039132878460 179.60230233331 0.9999867830658 -78.84896260479 0.9999867830658 -78.84896260479 0.0039114260288 -157.4336294356
8.571075000000000 0.0039166278292 179.61195810656 0.9999867678009 -78.84938697651 0.9999867678009 -78.84938697651 0.0039147667417 -157.4440866058
8.571100000000001 0.0039199709482 179.62160564140 0.9999867525097 -78.84981152464 0.9999867525097 -78.84981152464 0.0039181105897 -157.4545359447
8.571125000000000 0.0039233172049 179.63124493898 0.9999867371920 -78.85023624925 0.9999867371920 -78.85023624925 0.0039214575744 -157.4649774544
8.571150000000001 0.0039266666053 179.64087601358 0.9999867218479 -78.85066115071 0.9999867218479 -78.85066115071 0.0039248077019 -157.4754111511
8.571175000000000 0.0039300191528 179.65049887272 0.9999867064774 -78.85108622922 0.9999867064774 -78.85108622922 0.0039281609754 -157.4858370404
8.571200000000001 0.0039333748505 179.66011352193 0.9999866910803 -78.85151148495 0.9999866910803 -78.85151148495 0.0039315173983 -157.4962551294
8.571225000000000 0.0039367337038 179.66971997349 0.9999866756566 -78.85193691822 0.9999866756566 -78.85193691822 0.0039348769758 -157.5066654315
8.571250000000001 0.0039400957165 179.67931823527 0.9999866602063 -78.85236252926 0.9999866602063 -78.85236252926 0.0039382397117 -157.5170679542
8.571275000000000 0.0039434608936 179.68890831912 0.9999866447292 -78.85278831834 0.9999866447292 -78.85278831834 0.0039416056111 -157.5274627090
8.571300000000001 0.0039468292381 179.69849022891 0.9999866292254 -78.85321428565 0.9999866292254 -78.85321428565 0.0039449746771 -157.5378497039
8.571325000000000 0.0039502007542 179.70806397479 0.9999866136947 -78.85364043143 0.9999866136947 -78.85364043143 0.0039483469136 -157.5482289458
8.571350000000001 0.0039535754467 179.71762956738 0.9999865981373 -78.85406675596 0.9999865981373 -78.85406675596 0.0039517223255 -157.5586004461
8.571375000000000 0.0039569533189 179.72718701245 0.9999865825529 -78.85449325944 0.9999865825529 -78.85449325944 0.0039551009163 -157.5689642122
8.571400000000001 0.0039603343763 179.73673632254 0.9999865669415 -78.85491994218 0.9999865669415 -78.85491994218 0.0039584826913 -157.5793202573
8.571425000000001 0.0039637186214 179.74627750127 0.9999865513031 -78.85534680432 0.9999865513031 -78.85534680432 0.0039618676531 -157.5896685849
8.571450000000000 0.0039671060595 179.75581056117 0.9999865356376 -78.85577384618 0.9999865356376 -78.85577384618 0.0039652558069 -157.6000092073
8.571475000000001 0.0039704966951 179.76533551100 0.9999865199450 -78.85620106802 0.9999865199450 -78.85620106802 0.0039686471573 -157.6103421351
8.571500000000000 0.0039738905312 179.77485235536 0.9999865042251 -78.85662847001 0.9999865042251 -78.85662847001 0.0039720417072 -157.6206673745
8.571525000000001 0.0039772875737 179.78436111004 0.9999864884781 -78.85705605251 0.9999864884781 -78.85705605251 0.0039754394627 -157.6309849377
8.571550000000000 0.0039806878241 179.79386177401 0.9999864727038 -78.85748381558 0.9999864727038 -78.85748381558 0.0039788404251 -157.6412948269
8.571575000000001 0.0039840912900 179.80335436505 0.9999864569020 -78.85791175968 0.9999864569020 -78.85791175968 0.0039822446021 -157.6515970614
8.571600000000000 0.0039874979733 179.81283888643 0.9999864410729 -78.85833988491 0.9999864410729 -78.85833988491 0.0039856519955 -157.6618916426
8.571625000000001 0.0039909078787 179.82231534663 0.9999864252163 -78.85876819156 0.9999864252163 -78.85876819156 0.0039890626100 -157.6721785820
8.571650000000000 0.0039943210110 179.83178375727 0.9999864093322 -78.85919667989 0.9999864093322 -78.85919667989 0.0039924764506 -157.6824578888
8.571675000000001 0.0039977373740 179.84124412482 0.9999863934205 -78.85962535014 0.9999863934205 -78.85962535014 0.0039958935209 -157.6927295712
8.571700000000000 0.0040011569721 179.85069645741 0.9999863774811 -78.86005420254 0.9999863774811 -78.86005420254 0.0039993138253 -157.7029936392
8.571725000000001 0.0040045798097 179.86014076576 0.9999863615141 -78.86048323738 0.9999863615141 -78.86048323738 0.0040027373684 -157.7132501017
8.571750000000000 0.0040080058903 179.86957705417 0.9999863455194 -78.86091245483 0.9999863455194 -78.86091245483 0.0040061641535 -157.7234989656
8.571775000000001 0.0040114352193 179.87900533555 0.9999863294968 -78.86134185523 0.9999863294968 -78.86134185523 0.0040095941860 -157.7337402429
8.571800000000001 0.0040148678015 179.88842562005 0.9999863134464 -78.86177143884 0.9999863134464 -78.86177143884 0.0040130274709 -157.7439739430
8.571825000000000 0.0040183036395 179.89783790971 0.9999862973681 -78.86220120582 0.9999862973681 -78.86220120582 0.0040164640106 -157.7542000722
8.571850000000001 0.0040217427382 179.90724221574 0.9999862812617 -78.86263115646 0.9999862812617 -78.86263115646 0.0040199038100 -157.7644186395
8.571875000000000 0.0040251851029 179.91663854932 0.9999862651274 -78.86306129107 0.9999862651274 -78.86306129107 0.0040233468746 -157.7746296572
8.571900000000001 0.0040286307370 179.92602691558 0.9999862489650 -78.86349160983 0.9999862489650 -78.86349160983 0.0040267932076 -157.7848331314
8.571925000000000 0.0040320796448 179.93540732380 0.9999862327744 -78.86392211300 0.9999862327744 -78.86392211300 0.0040302428133 -157.7950290704
8.571950000000001 0.0040355318307 179.94477978235 0.9999862165557 -78.86435280084 0.9999862165557 -78.86435280084 0.0040336956963 -157.8052174840
8.571975000000000 0.0040389872994 179.95414429954 0.9999862003087 -78.86478367362 0.9999862003087 -78.86478367362 0.0040371518611 -157.8153983819
8.572000000000001 0.0040424460546 179.96350088183 0.9999861840333 -78.86521473154 0.9999861840333 -78.86521473154 0.0040406113114 -157.8255717714
8.572025000000000 0.0040459081022 179.97284954389 0.9999861677296 -78.86564597498 0.9999861677296 -78.86564597498 0.0040440740533 -157.8357376644
8.572050000000001 0.0040493734445 179.98219028649 0.9999861513975 -78.86607740404 0.9999861513975 -78.86607740404 0.0040475400890 -157.8458960654
8.572075000000000 0.0040528420881 179.99152312475 0.9999861350368 -78.86650901912 0.9999861350368 -78.86650901912 0.0040510094250 -157.8560469885
8.572100000000001 0.0040563140357 -179.9991519379 0.9999861186477 -78.86694082036 0.9999861186477 -78.86694082036 0.0040544820640 -157.8661904377
8.572125000000000 0.0040597892922 -179.9898348919 0.9999861022299 -78.86737280807 0.9999861022299 -78.86737280807 0.0040579580111 -157.8763264238
8.572150000000001 0.0040632678626 -179.9805257276 0.9999860857835 -78.86780498252 0.9999860857835 -78.86780498252 0.0040614372711 -157.8864549574
8.572175000000000 0.0040667497496 -179.9712244406 0.9999860693083 -78.86823734388 0.9999860693083 -78.86823734388 0.0040649198468 -157.8965760420
8.572200000000000 0.0040702349594 -179.9619310185 0.9999860528044 -78.86866989250 0.9999860528044 -78.86866989250 0.0040684057444 -157.9066896912
8.572225000000001 0.0040737234964 -179.9526454529 0.9999860362717 -78.86910262864 0.9999860362717 -78.86910262864 0.0040718949682 -157.9167959135
8.572250000000000 0.0040772153639 -179.9433677387 0.9999860197100 -78.86953555249 0.9999860197100 -78.86953555249 0.0040753875216 -157.9268947153
8.572275000000001 0.0040807105679 -179.9340978631 0.9999860031194 -78.86996866440 0.9999860031194 -78.86996866440 0.0040788834106 -157.9369861090
8.572300000000000 0.0040842091111 -179.9248358233 0.9999859864998 -78.87040196453 0.9999859864998 -78.87040196453 0.0040823826379 -157.9470700985
8.572325000000001 0.0040877109993 -179.9155816074 0.9999859698511 -78.87083545322 0.9999859698511 -78.87083545322 0.0040858852092 -157.9571466965
8.572350000000000 0.0040912162362 -179.9063352087 0.9999859531733 -78.87126913067 0.9999859531733 -78.87126913067 0.0040893911283 -157.9672159090
8.572375000000001 0.0040947248271 -179.8970966177 0.9999859364662 -78.87170299720 0.9999859364662 -78.87170299720 0.0040929004005 -157.9772777480
8.572400000000000 0.0040982367753 -179.8878658284 0.9999859197300 -78.87213705300 0.9999859197300 -78.87213705300 0.0040964130291 -157.9873322173
8.572425000000001 0.0041017520875 -179.8786428276 0.9999859029644 -78.87257129846 0.9999859029644 -78.87257129846 0.0040999290208 -157.9973793332
8.572450000000000 0.0041052707651 -179.8694276157 0.9999858861694 -78.87300573366 0.9999858861694 -78.87300573366 0.0041034483769 -158.0074190949
8.572475000000001 0.0041087928152 -179.8602201771 0.9999858693451 -78.87344035900 0.9999858693451 -78.87344035900 0.0041069711046 -158.0174515181
8.572500000000000 0.0041123182411 -179.8510205072 0.9999858524911 -78.87387517470 0.9999858524911 -78.87387517470 0.0041104972072 -158.0274766092
8.572525000000001 0.0041158470471 -179.8418285982 0.9999858356077 -78.87431018098 0.9999858356077 -78.87431018098 0.0041140266890 -158.0374943744
8.572550000000000 0.0041193792390 -179.8326444385 0.9999858186947 -78.87474537819 0.9999858186947 -78.87474537819 0.0041175595557 -158.0475048263
8.572575000000001 0.0041229148209 -179.8234680225 0.9999858017520 -78.87518076657 0.9999858017520 -78.87518076658 0.0041210958116 -158.0575079738
8.572600000000001 0.0041264537970 -179.8142993422 0.9999857847795 -78.87561634637 0.9999857847795 -78.87561634637 0.0041246354607 -158.0675038229
8.572625000000000 0.0041299961716 -179.8051383897 0.9999857677773 -78.87605211782 0.9999857677773 -78.87605211782 0.0041281785073 -158.0774923813
8.572650000000001 0.0041335419503 -179.7959851547 0.9999857507452 -78.87648808127 0.9999857507452 -78.87648808127 0.0041317249573 -158.0874736614
8.572675000000000 0.0041370911364 -179.7868396332 0.9999857336832 -78.87692423689 0.9999857336832 -78.87692423689 0.0041352748136 -158.0974476677
8.572700000000001 0.0041406437363 -179.7777018122 0.9999857165912 -78.87736058505 0.9999857165912 -78.87736058505 0.0041388280828 -158.1074144136
8.572725000000000 0.0041441997532 -179.7685716869 0.9999856994691 -78.87779712596 0.9999856994691 -78.87779712596 0.0041423847681 -158.1173739040
8.572750000000001 0.0041477591908 -179.7594492517 0.9999856823170 -78.87823385981 0.9999856823170 -78.87823385981 0.0041459448732 -158.1273261445
8.572775000000000 0.0041513220567 -179.7503344908 0.9999856651347 -78.87867078706 0.9999856651347 -78.87867078706 0.0041495084058 -158.1372711522
8.572800000000001 0.0041548883527 -179.7412274045 0.9999856479222 -78.87910790781 0.9999856479222 -78.87910790781 0.0041530753674 -158.1472089279
8.572825000000000 0.0041584580851 -179.7321279806 0.9999856306793 -78.87954522241 0.9999856306793 -78.87954522241 0.0041566457646 -158.1571394852
8.572850000000001 0.0041620312576 -179.7230362119 0.9999856134062 -78.87998273109 0.9999856134062 -78.87998273109 0.0041602196009 -158.1670628280
8.572875000000000 0.0041656078754 -179.7139520904 0.9999855961026 -78.88042043415 0.9999855961026 -78.88042043415 0.0041637968816 -158.1769789683
8.572900000000001 0.0041691879436 -179.7048756069 0.9999855787685 -78.88085833189 0.9999855787685 -78.88085833189 0.0041673776119 -158.1868879151
8.572925000000000 0.0041727714662 -179.6958067556 0.9999855614039 -78.88129642452 0.9999855614039 -78.88129642452 0.0041709617955 -158.1967896748
8.572950000000001 0.0041763584470 -179.6867455292 0.9999855440088 -78.88173471229 0.9999855440088 -78.88173471229 0.0041745494366 -158.2066842530
8.572975000000001 0.0041799488936 -179.6776919137 0.9999855265829 -78.88217319563 0.9999855265829 -78.88217319563 0.0041781405424 -158.2165716663
8.573000000000000 0.0041835428078 -179.6686459093 0.9999855091263 -78.88261187464 0.9999855091263 -78.88261187464 0.0041817351150 -158.2264519163
8.573025000000001 0.0041871401958 -179.6596075037 0.9999854916389 -78.88305074967 0.9999854916389 -78.88305074967 0.0041853331604 -158.2363250146
8.573050000000000 0.0041907410609 -179.6505766919 0.9999854741207 -78.88348982094 0.9999854741207 -78.88348982094 0.0041889346821 -158.2461909652
8.573075000000001 0.0041943454104 -179.6415534605 0.9999854565715 -78.88392908884 0.9999854565715 -78.88392908884 0.0041925396872 -158.2560497843
8.573100000000000 0.0041979532464 -179.6325378074 0.9999854389914 -78.88436855352 0.9999854389914 -78.88436855352 0.0041961481779 -158.2659014722
8.573125000000001 0.0042015645752 -179.6235297224 0.9999854213802 -78.88480821533 0.9999854213802 -78.88480821533 0.0041997601604 -158.2757460430
8.573150000000000 0.0042051794005 -179.6145291991 0.9999854037378 -78.88524807450 0.9999854037378 -78.88524807450 0.0042033756387 -158.2855835016
8.573175000000001 0.0042087977287 -179.6055362252 0.9999853860644 -78.88568813138 0.9999853860644 -78.88568813138 0.0042069946188 -158.2954138590
8.573200000000000 0.0042124195636 -179.5965507965 0.9999853683597 -78.88612838620 0.9999853683597 -78.88612838620 0.0042106171048 -158.3052371229
8.573225000000001 0.0042160449093 -179.5875729065 0.9999853506237 -78.88656883921 0.9999853506237 -78.88656883921 0.0042142431007 -158.3150532997
8.573250000000000 0.0042196737720 -179.5786025447 0.9999853328563 -78.88700949075 0.9999853328563 -78.88700949075 0.0042178726126 -158.3248624012
8.573275000000001 0.0042233061550 -179.5696397057 0.9999853150574 -78.88745034102 0.9999853150574 -78.88745034102 0.0042215056440 -158.3346644311
8.573300000000000 0.0042269420644 -179.5606843796 0.9999852972271 -78.88789139037 0.9999852972271 -78.88789139037 0.0042251422007 -158.3444594014
8.573325000000001 0.0042305815036 -179.5517365612 0.9999852793652 -78.88833263900 0.9999852793652 -78.88833263900 0.0042287822865 -158.3542473164
8.573350000000001 0.0042342244801 -179.5427962373 0.9999852614717 -78.88877408736 0.9999852614717 -78.88877408736 0.0042324259087 -158.3640281929
8.573375000000000 0.0042378709956 -179.5338634078 0.9999852435464 -78.88921573552 0.9999852435464 -78.88921573552 0.0042360730688 -158.3738020290
8.573400000000001 0.0042415210579 -179.5249380559 0.9999852255895 -78.88965758395 0.9999852255895 -78.88965758395 0.0042397237750 -158.3835688408
8.573425000000000 0.0042451746690 -179.5160201841 0.9999852076007 -78.89009963276 0.9999852076007 -78.89009963276 0.0042433780289 -158.3933286309
8.573450000000001 0.0042488318354 -179.5071097784 0.9999851895800 -78.89054188234 0.9999851895800 -78.89054188234 0.0042470358374 -158.4030814101
8.573475000000000 0.0042524925622 -179.4982068315 0.9999851715273 -78.89098433296 0.9999851715273 -78.89098433296 0.0042506972052 -158.4128271879
8.573500000000001 0.0042561568530 -179.4893113386 0.9999851534426 -78.89142698485 0.9999851534426 -78.89142698485 0.0042543621362 -158.4225659689
8.573525000000000 0.0042598247149 -179.4804232865 0.9999851353258 -78.89186983842 0.9999851353258 -78.89186983842 0.0042580306373 -158.4322977664
8.573550000000001 0.0042634961507 -179.4715426732 0.9999851171768 -78.89231289382 0.9999851171768 -78.89231289382 0.0042617027115 -158.4420225846
8.573575000000000 0.0042671711659 -179.4626694897 0.9999850989956 -78.89275615138 0.9999850989956 -78.89275615138 0.0042653783642 -158.4517404324
8.573600000000001 0.0042708497660 -179.4538037263 0.9999850807822 -78.89319961142 0.9999850807822 -78.89319961142 0.0042690576008 -158.4614513189
8.573625000000000 0.0042745319548 -179.4449453785 0.9999850625363 -78.89364327415 0.9999850625363 -78.89364327415 0.0042727404253 -158.4711552499
8.573650000000001 0.0042782177381 -179.4360944371 0.9999850442581 -78.89408713992 0.9999850442581 -78.89408713992 0.0042764268434 -158.4808522361
8.573675000000000 0.0042819071220 -179.4272508911 0.9999850259473 -78.89453120907 0.9999850259473 -78.89453120907 0.0042801168611 -158.4905422880
8.573700000000001 0.0042856001089 -179.4184147398 0.9999850076040 -78.89497548174 0.9999850076040 -78.89497548174 0.0042838104810 -158.5002254076
8.573725000000001 0.0042892967057 -179.4095859707 0.9999849892280 -78.89541995834 0.9999849892280 -78.89541995834 0.0042875077098 -158.5099016077
8.573750000000000 0.0042929969158 -179.4007645798 0.9999849708194 -78.89586463906 0.9999849708194 -78.89586463906 0.0042912085510 -158.5195708920
8.573775000000001 0.0042967007471 -179.3919505533 0.9999849523779 -78.89630952435 0.9999849523779 -78.89630952435 0.0042949130126 -158.5292332771
8.573800000000000 0.0043004082016 -179.3831438899 0.9999849339036 -78.89675461435 0.9999849339036 -78.89675461435 0.0042986210964 -158.5388887622
8.573825000000001 0.0043041192851 -179.3743445809 0.9999849153964 -78.89719990938 0.9999849153964 -78.89719990938 0.0043023328083 -158.5485373582
8.573850000000000 0.0043078340033 -179.3655526171 0.9999848968563 -78.89764540976 0.9999848968563 -78.89764540976 0.0043060481541 -158.5581790748
8.573875000000001 0.0043115523616 -179.3567679903 0.9999848782830 -78.89809111582 0.9999848782830 -78.89809111582 0.0043097671390 -158.5678139207
8.573900000000000 0.0043152743636 -179.3479906960 0.9999848596767 -78.89853702777 0.9999848596767 -78.89853702777 0.0043134897668 -158.5774419005
8.573925000000001 0.0043190000155 -179.3392207238 0.9999848410372 -78.89898314596 0.9999848410372 -78.89898314596 0.0043172160435 -158.5870630243
8.573950000000000 0.0043227293216 -179.3304580690 0.9999848223645 -78.89942947064 0.9999848223645 -78.89942947064 0.0043209459735 -158.5966772997
8.573975000000001 0.0043264622873 -179.3217027228 0.9999848036584 -78.89987600213 0.9999848036584 -78.89987600213 0.0043246795623 -158.6062847351
8.574000000000000 0.0043301989183 -179.3129546767 0.9999847849189 -78.90032274074 0.9999847849189 -78.90032274074 0.0043284168154 -158.6158853396
8.574025000000001 0.0043339392194 -179.3042139235 0.9999847661459 -78.90076968678 0.9999847661459 -78.90076968678 0.0043321577378 -158.6254791209
8.574050000000000 0.0043376831941 -179.2954804596 0.9999847473394 -78.90121684042 0.9999847473394 -78.90121684042 0.0043359023328 -158.6350660820
8.574075000000001 0.0043414308502 -179.2867542709 0.9999847284994 -78.90166420214 0.9999847284994 -78.90166420214 0.0043396506083 -158.6446462382
8.574100000000001 0.0043451821906 -179.2780353568 0.9999847096256 -78.90211177209 0.9999847096256 -78.90211177209 0.0043434025673 -158.6542195932
8.574125000000000 0.0043489372223 -179.2693237045 0.9999846907181 -78.90255955068 0.9999846907181 -78.90255955068 0.0043471582166 -158.6637861582
8.574150000000001 0.0043526959481 -179.2606193107 0.9999846717768 -78.90300753808 0.9999846717768 -78.90300753808 0.0043509175592 -158.6733459349
8.574175000000000 0.0043564583752 -179.2519221659 0.9999846528016 -78.90345573469 0.9999846528016 -78.90345573469 0.0043546806022 -158.6828989377
8.574200000000001 0.0043602245074 -179.2432322650 0.9999846337924 -78.90390414074 0.9999846337924 -78.90390414074 0.0043584473493 -158.6924451706
8.574225000000000 0.0043639943519 -179.2345495952 0.9999846147492 -78.90435275666 0.9999846147492 -78.90435275666 0.0043622178079 -158.7019846467
8.574250000000001 0.0043677679126 -179.2258741526 0.9999845956719 -78.90480158265 0.9999845956719 -78.90480158265 0.0043659919817 -158.7115173698
8.574275000000000 0.0043715451941 -179.2172059316 0.9999845765605 -78.90525061899 0.9999845765605 -78.90525061899 0.0043697698755 -158.7210433476
8.574300000000001 0.0043753262021 -179.2085449231 0.9999845574148 -78.90569986601 0.9999845574148 -78.90569986601 0.0043735514949 -158.7305625884
8.574325000000000 0.0043791109422 -179.1998911195 0.9999845382347 -78.90614932404 0.9999845382347 -78.90614932404 0.0043773368455 -158.7400751017
8.574350000000001 0.0043828994191 -179.1912445141 0.9999845190203 -78.90659899335 0.9999845190203 -78.90659899335 0.0043811259320 -158.7495808934
8.574375000000000 0.0043866916377 -179.1826051013 0.9999844997714 -78.90704887421 0.9999844997714 -78.90704887421 0.0043849187593 -158.7590799710
8.574400000000001 0.0043904876046 -179.1739728701 0.9999844804880 -78.90749896702 0.9999844804880 -78.90749896702 0.0043887153340 -158.7685723458
8.574425000000000 0.0043942873249 -179.1653478141 0.9999844611699 -78.90794927206 0.9999844611699 -78.90794927206 0.0043925156612 -158.7780580252
8.574450000000001 0.0043980908018 -179.1567299304 0.9999844418172 -78.90839978952 0.9999844418172 -78.90839978952 0.0043963197441 -158.7875370116
8.574475000000001 0.0044018980435 -179.1481192047 0.9999844224298 -78.90885051988 0.9999844224298 -78.90885051988 0.0044001275909 -158.7970093196
8.574500000000000 0.0044057090524 -179.1395156371 0.9999844030075 -78.90930146328 0.9999844030075 -78.90930146328 0.0044039392041 -158.8064749513
8.574525000000001 0.0044095238363 -179.1309192145 0.9999843835502 -78.90975262017 0.9999843835502 -78.90975262017 0.0044077545913 -158.8159339201
8.574550000000000 0.0044133423981 -179.1223299347 0.9999843640581 -78.91020399071 0.9999843640581 -78.91020399071 0.0044115737555 -158.8253862268
8.574575000000001 0.0044171647456 -179.1137477859 0.9999843445308 -78.91065557536 0.9999843445308 -78.91065557536 0.0044153967046 -158.8348318874
8.574600000000000 0.0044209908833 -179.1051727613 0.9999843249685 -78.91110737437 0.9999843249685 -78.91110737437 0.0044192234430 -158.8442709055
8.574625000000001 0.0044248208147 -179.0966048602 0.9999843053709 -78.91155938796 0.9999843053709 -78.91155938796 0.0044230539741 -158.8537032865
8.574650000000000 0.0044286545473 -179.0880440679 0.9999842857381 -78.91201161655 0.9999842857381 -78.91201161655 0.0044268883056 -158.8631290415
8.574675000000001 0.0044324920861 -179.0794903804 0.9999842660699 -78.91246406043 0.9999842660699 -78.91246406043 0.0044307264423 -158.8725481785
8.574700000000000 0.0044363334360 -179.0709437902 0.9999842463663 -78.91291671989 0.9999842463663 -78.91291671989 0.0044345683894 -158.8819607039
8.574725000000001 0.0044401786031 -179.0624042880 0.9999842266272 -78.91336959528 0.9999842266272 -78.91336959528 0.0044384141527 -158.8913666260
8.574750000000000 0.0044440275915 -179.0538718715 0.9999842068525 -78.91382268684 0.9999842068525 -78.91382268684 0.0044422637365 -158.9007659518
8.574775000000001 0.0044478804077 -179.0453465302 0.9999841870422 -78.91427599494 0.9999841870422 -78.91427599494 0.0044461171471 -158.9101586901
8.574800000000000 0.0044517370568 -179.0368282575 0.9999841671961 -78.91472951988 0.9999841671961 -78.91472951988 0.0044499743897 -158.9195448478
8.574825000000001 0.0044555975442 -179.0283170462 0.9999841473143 -78.91518326198 0.9999841473143 -78.91518326198 0.0044538354698 -158.9289244327
8.574850000000001 0.0044594618757 -179.0198128891 0.9999841273966 -78.91563722155 0.9999841273966 -78.91563722155 0.0044577003930 -158.9382974535
8.574875000000000 0.0044633300562 -179.0113157800 0.9999841074429 -78.91609139891 0.9999841074429 -78.91609139891 0.0044615691644 -158.9476639172
8.574900000000001 0.0044672020907 -179.0028257128 0.9999840874532 -78.91654579432 0.9999840874532 -78.91654579432 0.0044654417889 -158.9570238293
8.574925000000000 0.0044710779866 -178.9943426769 0.9999840674273 -78.91700040822 0.9999840674273 -78.91700040822 0.0044693182739 -158.9663772031
8.574950000000001 0.0044749577480 -178.9858666677 0.9999840473653 -78.91745524083 0.9999840473653 -78.91745524083 0.0044731986235 -158.9757240423
8.574975000000000 0.0044788413795 -178.9773976794 0.9999840272670 -78.91791029245 0.9999840272670 -78.91791029245 0.0044770828424 -158.9850643525
8.575000000000001 0.0044827288889 -178.9689357010 0.9999840071324 -78.91836556351 0.9999840071324 -78.91836556351 0.0044809709382 -158.9943981466
8.575025000000000 0.0044866202791 -178.9604807308 0.9999839869614 -78.91882105417 0.9999839869614 -78.91882105417 0.0044848629139 -159.0037254263