! Sonnet Data File
! From: emgraph Version : 16.52
! From Project: 171117_Xmon_fullysym
! Data is De-embedded 
! Data File Written: 11/26/2017 17:14:24
!< HDATE 11/22/2017 16:48:52
!< MDATE 11/23/2017 10:16:42
!< PARAMS
!< Lj = 11.0
!< Gap = 1.0
!< Pwid = 2000.0
!< Airgap = 6.0
!< Width = 10.0
!< Lj1 = 9.9
!< END PARAMS
# GHZ S MA R 50.90000
8.750000000000000 0.0240341437456 -2.950691635494 0.9997070491874 -80.49534361722 0.9997070491891 -80.49534361707 0.0240355187944 21.974198134415
!< P1 F=8.75 Eeff=(6.44841643 -2.9796e-5) Z0=(50.9085185 1.17018e-4) R=0.0 C=0.0 
!< P2 F=8.75 Eeff=(6.44841643 -2.9796e-5) Z0=(50.9085185 1.17018e-4) R=0.0 C=0.0 
8.750100000000000 0.0240299194805 -2.954442407032 0.9997071473281 -80.49651934296 0.9997071473281 -80.49651934296 0.0240312962633 21.975614707918
8.750200000000001 0.0240256785589 -2.958204292915 0.9997072458327 -80.49769605120 0.9997072458327 -80.49769605120 0.0240270570842 21.977040516267
8.750300000000001 0.0240214208812 -2.961977355090 0.9997073447035 -80.49887374767 0.9997073447035 -80.49887374767 0.0240228011590 21.978475626353
8.750400000000001 0.0240171463427 -2.965761667143 0.9997074439422 -80.50005243855 0.9997074439422 -80.50005243855 0.0240185283835 21.979920103094
8.750500000000001 0.0240128548327 -2.969557307452 0.9997075435507 -80.50123213039 0.9997075435507 -80.50123213039 0.0240142386470 21.981374013662
8.750600000000000 0.0240085462702 -2.973364337539 0.9997076435310 -80.50241282797 0.9997076435310 -80.50241282797 0.0240099318687 21.982837409286
8.750700000000000 0.0240042205514 -2.977182832827 0.9997077438854 -80.50359453745 0.9997077438854 -80.50359453745 0.0240056079446 21.984310353353
8.750800000000000 0.0239998775681 -2.981012871987 0.9997078446164 -80.50477726522 0.9997078446164 -80.50477726522 0.0240012667664 21.985792910803
8.750900000000000 0.0239955172270 -2.984854521639 0.9997079457250 -80.50596101681 0.9997079457250 -80.50596101681 0.0239969082416 21.987285142181
8.751000000000001 0.0239911394123 -2.988707864963 0.9997080472138 -80.50714579905 0.9997080472138 -80.50714579905 0.0239925322540 21.988787117148
8.751100000000001 0.0239867440452 -2.992572963175 0.9997081490847 -80.50833161662 0.9997081490847 -80.50833161662 0.0239881387249 21.990298886395
8.751200000000001 0.0239823310018 -2.996449902681 0.9997082513396 -80.50951847685 0.9997082513396 -80.50951847685 0.0239837275308 21.991820525544
8.751300000000001 0.0239779001781 -3.000338762640 0.9997083539820 -80.51070638588 0.9997083539820 -80.51070638588 0.0239792985673 21.993352096314
8.751400000000000 0.0239734514877 -3.004239605546 0.9997084570123 -80.51189534885 0.9997084570123 -80.51189534885 0.0239748517483 21.994893657229
8.751500000000000 0.0239689848014 -3.008152523416 0.9997085604335 -80.51308537337 0.9997085604335 -80.51308537337 0.0239703869449 21.996445285252
8.751600000000000 0.0239645000200 -3.012077588621 0.9997086642470 -80.51427646532 0.9997086642470 -80.51427646532 0.0239659040580 21.998007044108
8.751700000000001 0.0239599970350 -3.016014884433 0.9997087684566 -80.51546863114 0.9997087684566 -80.51546863114 0.0239614029786 21.999578997593
8.751800000000001 0.0239554757464 -3.019964481297 0.9997088730628 -80.51666187673 0.9997088730628 -80.51666187673 0.0239568836075 22.001161212487
8.751900000000001 0.0239509360247 -3.023926472789 0.9997089780686 -80.51785620975 0.9997089780686 -80.51785620975 0.0239523458150 22.002753765975
8.752000000000001 0.0239463777737 -3.027900931866 0.9997090834763 -80.51905163591 0.9997090834763 -80.51905163591 0.0239477895049 22.004356719353
8.752100000000000 0.0239418008882 -3.031887935357 0.9997091892875 -80.52024816141 0.9997091892875 -80.52024816141 0.0239432145724 22.005970139883
8.752200000000000 0.0239372052428 -3.035887574787 0.9997092955052 -80.52144579369 0.9997092955052 -80.52144579369 0.0239386208920 22.007594103435
8.752300000000000 0.0239325907299 -3.039899929683 0.9997094021313 -80.52264453912 0.9997094021313 -80.52264453912 0.0239340083560 22.009228678307
8.752400000000000 0.0239279572239 -3.043925089641 0.9997095091680 -80.52384440512 0.9997095091680 -80.52384440512 0.0239293768394 22.010873942639
8.752500000000001 0.0239233046307 -3.047963129046 0.9997096166181 -80.52504539727 0.9997096166181 -80.52504539727 0.0239247262476 22.012529955849
8.752600000000001 0.0239186328173 -3.052014140411 0.9997097244829 -80.52624752342 0.9997097244829 -80.52624752342 0.0239200564485 22.014196802145
8.752700000000001 0.0239139416704 -3.056078211737 0.9997098327664 -80.52745079032 0.9997098327664 -80.52745079032 0.0239153673279 22.015874549556
8.752800000000001 0.0239092310732 -3.060155426050 0.9997099414695 -80.52865520483 0.9997099414695 -80.52865520483 0.0239106587699 22.017563274295
8.752900000000000 0.0239045009063 -3.064245872969 0.9997100505954 -80.52986077406 0.9997100505954 -80.52986077406 0.0239059306549 22.019263050036
8.753000000000000 0.0238997510511 -3.068349638270 0.9997101601455 -80.53106750500 0.9997101601455 -80.53106750500 0.0239011828646 22.020973953384
8.753100000000000 0.0238949813855 -3.072466814363 0.9997102701232 -80.53227540489 0.9997102701232 -80.53227540489 0.0238964152767 22.022696059022
8.753200000000001 0.0238901917970 -3.076597484985 0.9997103805306 -80.53348448040 0.9997103805306 -80.53348448040 0.0238916277790 22.024429439461
8.753300000000001 0.0238853821409 -3.080741755446 0.9997104913708 -80.53469474009 0.9997104913708 -80.53469474009 0.0238868202267 22.026174182549
8.753400000000001 0.0238805523032 -3.084899708583 0.9997106026451 -80.53590619069 0.9997106026451 -80.53590619069 0.0238819925063 22.027930364087
8.753500000000001 0.0238757021672 -3.089071433937 0.9997107143565 -80.53711883913 0.9997107143565 -80.53711883913 0.0238771445010 22.029698057003
8.753600000000000 0.0238708316007 -3.093257029479 0.9997108265079 -80.53833269322 0.9997108265079 -80.53833269322 0.0238722760787 22.031477343468
8.753700000000000 0.0238659404712 -3.097456591372 0.9997109391014 -80.53954776082 0.9997109391014 -80.53954776082 0.0238673871070 22.033268308257
8.753800000000000 0.0238610286615 -3.101670208088 0.9997110521393 -80.54076404885 0.9997110521393 -80.54076404885 0.0238624774689 22.035071026955
8.753900000000000 0.0238560960337 -3.105897983302 0.9997111656252 -80.54198156550 0.9997111656252 -80.54198156550 0.0238575470263 22.036885583835
8.754000000000001 0.0238511424649 -3.110140005842 0.9997112795602 -80.54320031802 0.9997112795602 -80.54320031802 0.0238525956571 22.038712061127
8.754100000000001 0.0238461678197 -3.114396379188 0.9997113939482 -80.54442031445 0.9997113939482 -80.54442031445 0.0238476232253 22.040550541586
8.754200000000001 0.0238411719669 -3.118667199021 0.9997115087908 -80.54564156254 0.9997115087908 -80.54564156254 0.0238426296004 22.042401110829
8.754300000000001 0.0238361547476 -3.122952581437 0.9997116240917 -80.54686407170 0.9997116240917 -80.54686407170 0.0238376146234 22.044263866064
8.754400000000000 0.0238311160767 -3.127252596658 0.9997117398525 -80.54808784698 0.9997117398525 -80.54808784698 0.0238325782092 22.046138867691
8.754500000000000 0.0238260557761 -3.131567373125 0.9997118560771 -80.54931289892 0.9997118560771 -80.54931289892 0.0238275201797 22.048026223113
8.754600000000000 0.0238209737258 -3.135897000616 0.9997119727671 -80.55053923462 0.9997119727671 -80.55053923462 0.0238224404156 22.049926013030
8.754700000000000 0.0238158697961 -3.140241578626 0.9997120899255 -80.55176686178 0.9997120899255 -80.55176686178 0.0238173387868 22.051838320463
8.754800000000001 0.0238107438270 -3.144601224659 0.9997122075557 -80.55299578985 0.9997122075557 -80.55299578985 0.0238122151335 22.053763244554
8.754900000000001 0.0238055956939 -3.148976033505 0.9997123256599 -80.55422602622 0.9997123256599 -80.55422602622 0.0238070693315 22.055700867846
8.755000000000001 0.0238004252471 -3.153366115936 0.9997124442407 -80.55545757976 0.9997124442407 -80.55545757976 0.0238019012311 22.057651285849
8.755100000000001 0.0237952323527 -3.157771574083 0.9997125633010 -80.55669045840 0.9997125633009 -80.55669045840 0.0237967106985 22.059614585184
8.755200000000000 0.0237900168540 -3.162192523910 0.9997126828438 -80.55792467140 0.9997126828438 -80.55792467140 0.0237914975773 22.061590865046
8.755300000000000 0.0237847786115 -3.166629073505 0.9997128028729 -80.55916022706 0.9997128028729 -80.55916022706 0.0237862617275 22.063580213801
8.755400000000000 0.0237795174733 -3.171081333358 0.9997129233899 -80.56039713435 0.9997129233899 -80.56039713435 0.0237810029981 22.065582731335
8.755500000000001 0.0237742333048 -3.175549407459 0.9997130443979 -80.56163540125 0.9997130443979 -80.56163540125 0.0237757212544 22.067598505326
8.755600000000001 0.0237689259457 -3.180033415618 0.9997131659001 -80.56287503725 0.9997131659001 -80.56287503725 0.0237704163362 22.069627637376
8.755700000000001 0.0237635952473 -3.184533468172 0.9997132878987 -80.56411605116 0.9997132878987 -80.56411605116 0.0237650880952 22.071670225625
8.755800000000001 0.0237582410572 -3.189049684438 0.9997134103984 -80.56535845202 0.9997134103984 -80.56535845202 0.0237597363785 22.073726364783
8.755900000000000 0.0237528632206 -3.193582178264 0.9997135334009 -80.56660224898 0.9997135334009 -80.56660224898 0.0237543610320 22.075796157160
8.756000000000000 0.0237474615900 -3.198131062146 0.9997136569093 -80.56784745079 0.9997136569093 -80.56784745079 0.0237489619082 22.077879699527
8.756100000000000 0.0237420360072 -3.202696456486 0.9997137809269 -80.56909406682 0.9997137809269 -80.56909406682 0.0237435388491 22.079977092973
8.756200000000000 0.0237365863068 -3.207278484368 0.9997139054565 -80.57034210687 0.9997139054565 -80.57034210687 0.0237380916894 22.082088445109
8.756300000000001 0.0237311123361 -3.211877263222 0.9997140305015 -80.57159157997 0.9997140305015 -80.57159157997 0.0237326202766 22.084213854909
8.756400000000001 0.0237256139417 -3.216492909962 0.9997141560646 -80.57284249524 0.9997141560646 -80.57284249524 0.0237271244575 22.086353423673
8.756500000000001 0.0237200909434 -3.221125560064 0.9997142821499 -80.57409486333 0.9997142821499 -80.57409486333 0.0237216040519 22.088507264951
8.756600000000001 0.0237145432020 -3.225775320495 0.9997144087592 -80.57534869251 0.9997144087592 -80.57534869251 0.0237160589209 22.090675474838
8.756700000000000 0.0237089705363 -3.230442330013 0.9997145358973 -80.57660399350 0.9997145358973 -80.57660399350 0.0237104888832 22.092858166149
8.756800000000000 0.0237033727826 -3.235126710075 0.9997146635660 -80.57786077600 0.9997146635660 -80.57786077600 0.0237048937757 22.095055449401
8.756900000000000 0.0236977497817 -3.239828585434 0.9997147917692 -80.57911904945 0.9997147917692 -80.57911904945 0.0236992734390 22.097267427831
8.757000000000000 0.0236921013567 -3.244548089719 0.9997149205103 -80.58037882434 0.9997149205103 -80.58037882434 0.0236936276965 22.099494216160
8.757100000000001 0.0236864273370 -3.249285351489 0.9997150497920 -80.58164011075 0.9997150497920 -80.58164011075 0.0236879563780 22.101735927739
8.757200000000001 0.0236807275565 -3.254040500903 0.9997151796185 -80.58290291856 0.9997151796185 -80.58290291856 0.0236822593171 22.103992670129
8.757300000000001 0.0236750018431 -3.258813667613 0.9997153099920 -80.58416725794 0.9997153099920 -80.58416725794 0.0236765363424 22.106264558570
8.757400000000001 0.0236692500181 -3.263604990276 0.9997154409172 -80.58543313951 0.9997154409172 -80.58543313951 0.0236707872749 22.108551707934
8.757500000000000 0.0236634719079 -3.268414601462 0.9997155723969 -80.58670057354 0.9997155723969 -80.58670057354 0.0236650119412 22.110854233623
8.757600000000000 0.0236576673232 -3.273242642800 0.9997157044340 -80.58796957124 0.9997157044340 -80.58796957124 0.0236592101527 22.113172260726
8.757700000000000 0.0236518360970 -3.278089246020 0.9997158370325 -80.58924014253 0.9997158370325 -80.58924014253 0.0236533817424 22.115505899529
8.757800000000001 0.0236459780462 -3.282954551559 0.9997159701957 -80.59051229824 0.9997159701957 -80.59051229824 0.0236475265271 22.117855270884
8.757900000000001 0.0236400929787 -3.287838708184 0.9997161039284 -80.59178604979 0.9997161039284 -80.59178604979 0.0236416443147 22.120220498484
8.758000000000001 0.0236341807186 -3.292741849365 0.9997162382325 -80.59306140758 0.9997162382325 -80.59306140758 0.0236357349299 22.122601702904
8.758100000000001 0.0236282410776 -3.297664119642 0.9997163731117 -80.59433838278 0.9997163731117 -80.59433838278 0.0236297981848 22.124999008939
8.758200000000000 0.0236222738631 -3.302605669337 0.9997165085705 -80.59561698681 0.9997165085705 -80.59561698681 0.0236238338865 22.127412541503
8.758300000000000 0.0236162788996 -3.307566634597 0.9997166446117 -80.59689723006 0.9997166446117 -80.59689723006 0.0236178418601 22.129842420590
8.758400000000000 0.0236102559799 -3.312547175595 0.9997167812402 -80.59817912485 0.9997167812402 -80.59817912485 0.0236118218979 22.132288779820
8.758500000000000 0.0236042049184 -3.317547433392 0.9997169184582 -80.59946268214 0.9997169184582 -80.59946268214 0.0236057738155 22.134751746878
8.758600000000001 0.0235981255110 -3.322567567476 0.9997170562705 -80.60074791406 0.9997170562705 -80.60074791406 0.0235996974083 22.137231454299
8.758700000000001 0.0235920175747 -3.327607719965 0.9997171946800 -80.60203483144 0.9997171946800 -80.60203483144 0.0235935924938 22.139728027785
8.758800000000001 0.0235858808981 -3.332668055437 0.9997173336917 -80.60332344684 0.9997173336917 -80.60332344684 0.0235874588606 22.142241604556
8.758900000000001 0.0235797152920 -3.337748721324 0.9997174733086 -80.60461377146 0.9997174733086 -80.60461377146 0.0235812963197 22.144772313915
8.759000000000000 0.0235735205397 -3.342849881600 0.9997176135341 -80.60590581814 0.9997176135341 -80.60590581814 0.0235751046552 22.147320301070
8.759100000000000 0.0235672964483 -3.347971691205 0.9997177543728 -80.60719959833 0.9997177543728 -80.60719959833 0.0235688836739 22.149885694305
8.759200000000000 0.0235610428142 -3.353114309053 0.9997178958288 -80.60849512413 0.9997178958288 -80.60849512413 0.0235626331722 22.152468630908
8.759300000000001 0.0235547594162 -3.358277905032 0.9997180379059 -80.60979240863 0.9997180379059 -80.60979240863 0.0235563529295 22.155069258013
8.759400000000001 0.0235484460498 -3.363462640204 0.9997181806083 -80.61109146396 0.9997181806083 -80.61109146396 0.0235500427414 22.157687713753
8.759500000000001 0.0235421025119 -3.368668673906 0.9997183239395 -80.61239230217 0.9997183239395 -80.61239230217 0.0235437024050 22.160324136897
8.759600000000001 0.0235357285726 -3.373896183256 0.9997184679036 -80.61369493689 0.9997184679036 -80.61369493689 0.0235373316908 22.162978680647
8.759700000000000 0.0235293240319 -3.379145326678 0.9997186125043 -80.61499937999 0.9997186125043 -80.61499937999 0.0235309303992 22.165651482925
8.759800000000000 0.0235228886582 -3.384416287478 0.9997187577475 -80.61630564520 0.9997187577475 -80.61630564520 0.0235244982982 22.168342695004
8.759900000000000 0.0235164222428 -3.389709228340 0.9997189036359 -80.61761374492 0.9997189036359 -80.61761374492 0.0235180351796 22.171052462661
8.760000000000000 0.0235099245537 -3.395024329641 0.9997190501737 -80.61892369289 0.9997190501737 -80.61892369289 0.0235115408119 22.173780941975
8.760100000000001 0.0235033953657 -3.400361768584 0.9997191973654 -80.62023550247 0.9997191973654 -80.62023550247 0.0235050149702 22.176528285518
8.760200000000001 0.0234968344545 -3.405721724713 0.9997193452161 -80.62154918698 0.9997193452161 -80.62154918698 0.0234984574298 22.179294643880
8.760300000000001 0.0234902416002 -3.411104369397 0.9997194937287 -80.62286475946 0.9997194937287 -80.62286475946 0.0234918679718 22.182080170939
8.760400000000001 0.0234836165563 -3.416509894860 0.9997196429079 -80.62418223452 0.9997196429079 -80.62418223452 0.0234852463499 22.184885032267
8.760500000000000 0.0234769590996 -3.421938482748 0.9997197927594 -80.62550162543 0.9997197927594 -80.62550162543 0.0234785923403 22.187709378370
8.760600000000000 0.0234702689947 -3.427390314290 0.9997199432857 -80.62682294613 0.9997199432857 -80.62682294613 0.0234719057090 22.190553374294
8.760700000000000 0.0234635459943 -3.432865586870 0.9997200944926 -80.62814621131 0.9997200944926 -80.62814621131 0.0234651862082 22.193417185126
8.760800000000000 0.0234567898615 -3.438364487883 0.9997202463843 -80.62947143503 0.9997202463843 -80.62947143503 0.0234584336016 22.196300974319
8.760900000000001 0.0234500003612 -3.443887205983 0.9997203989656 -80.63079863123 0.9997203989656 -80.63079863123 0.0234516476541 22.199204903389
8.761000000000001 0.0234431772491 -3.449433933371 0.9997205522402 -80.63212781442 0.9997205522402 -80.63212781442 0.0234448281220 22.202129141868
8.761100000000001 0.0234363202678 -3.455004875020 0.9997207062139 -80.63345899987 0.9997207062139 -80.63345899987 0.0234379747478 22.205073863540
8.761200000000001 0.0234294291665 -3.460600227328 0.9997208608900 -80.63479220244 0.9997208608900 -80.63479220244 0.0234310872818 22.208039243449
8.761300000000000 0.0234225037138 -3.466220181540 0.9997210162743 -80.63612743591 0.9997210162743 -80.63612743591 0.0234241654918 22.211025441425
8.761400000000000 0.0234155436250 -3.471864957820 0.9997211723713 -80.63746471714 0.9997211723713 -80.63746471714 0.0234172090941 22.214032651163
8.761500000000000 0.0234085486663 -3.477534750127 0.9997213291867 -80.63880406004 0.9997213291867 -80.63880406004 0.0234102178545 22.217061034876
8.761600000000001 0.0234015185516 -3.483229777371 0.9997214867237 -80.64014548156 0.9997214867237 -80.64014548156 0.0234031914882 22.220110791343
8.761700000000001 0.0233944530519 -3.488950229805 0.9997216449871 -80.64148899529 0.9997216449871 -80.64148899529 0.0233961297662 22.223182083278
8.761800000000001 0.0233873518798 -3.494696335674 0.9997218039828 -80.64283461832 0.9997218039828 -80.64283461832 0.0233890324010 22.226275105274
8.761900000000001 0.0233802147821 -3.500468301453 0.9997219637160 -80.64418236568 0.9997219637160 -80.64418236568 0.0233818991398 22.229390034671
8.762000000000000 0.0233730414817 -3.506266348705 0.9997221241919 -80.64553225382 0.9997221241919 -80.64553225382 0.0233747297056 22.232527063189
8.762100000000000 0.0233658317013 -3.512090695402 0.9997222854138 -80.64688429918 0.9997222854138 -80.64688429918 0.0233675238222 22.235686387346
8.762200000000000 0.0233585851556 -3.517941574567 0.9997224473891 -80.64823851871 0.9997224473891 -80.64823851871 0.0233602812039 22.238868200243
8.762300000000000 0.0233513015807 -3.523819197485 0.9997226101211 -80.64959492808 0.9997226101211 -80.64959492808 0.0233530015876 22.242072692214
8.762400000000001 0.0233439806980 -3.529723790876 0.9997227736154 -80.65095354383 0.9997227736154 -80.65095354383 0.0233456846949 22.245300057591
8.762500000000001 0.0233366222182 -3.535655589361 0.9997229378782 -80.65231438316 0.9997229378782 -80.65231438316 0.0233383302365 22.248550496791
8.762600000000001 0.0233292258446 -3.541614829258 0.9997231029139 -80.65367746367 0.9997231029139 -80.65367746367 0.0233309379165 22.251824218232
8.762700000000001 0.0233217912991 -3.547601739528 0.9997232687286 -80.65504280188 0.9997232687286 -80.65504280188 0.0233235074567 22.255121418053
8.762800000000000 0.0233143182811 -3.553616561028 0.9997234353269 -80.65641041563 0.9997234353269 -80.65641041563 0.0233160385572 22.258442308017
8.762900000000000 0.0233068065035 -3.559659527258 0.9997236027138 -80.65778032198 0.9997236027138 -80.65778032198 0.0233085309314 22.261787092952
8.763000000000000 0.0232992556626 -3.565730887582 0.9997237708962 -80.65915253898 0.9997237708962 -80.65915253898 0.0233009842756 22.265155983677
8.763100000000000 0.0232916654511 -3.571830890726 0.9997239398794 -80.66052708488 0.9997239398794 -80.66052708488 0.0232933982826 22.268549197226
8.763200000000001 0.0232840355615 -3.577959784107 0.9997241096681 -80.66190397792 0.9997241096681 -80.66190397792 0.0232857726460 22.271966953273
8.763300000000001 0.0232763656983 -3.584117813369 0.9997242802684 -80.66328323568 0.9997242802684 -80.66328323568 0.0232781070703 22.275409461693
8.763400000000001 0.0232686555431 -3.590305235780 0.9997244516856 -80.66466487707 0.9997244516856 -80.66466487707 0.0232704012376 22.278876948883
8.763500000000001 0.0232609047769 -3.596522313485 0.9997246239262 -80.66604892104 0.9997246239262 -80.66604892104 0.0232626548290 22.282369639508
8.763600000000000 0.0232531130775 -3.602769308388 0.9997247969957 -80.66743538671 0.9997247969957 -80.66743538671 0.0232548675231 22.285887763418
8.763700000000000 0.0232452801333 -3.609046477207 0.9997249708995 -80.66882429262 0.9997249708995 -80.66882429262 0.0232470390086 22.289431545218
8.763800000000000 0.0232374056218 -3.615354088964 0.9997251456448 -80.67021565795 0.9997251456448 -80.67021565795 0.0232391689627 22.293001212572
8.763900000000001 0.0232294891971 -3.621692422083 0.9997253212369 -80.67160950322 0.9997253212369 -80.67160950322 0.0232312570406 22.296597012424
8.764000000000001 0.0232215305480 -3.628061734873 0.9997254976809 -80.67300584692 0.9997254976809 -80.67300584692 0.0232233029316 22.300219172797
8.764100000000001 0.0232135293292 -3.634462311375 0.9997256749833 -80.67440470959 0.9997256749833 -80.67440470959 0.0232153062907 22.303867938904
8.764200000000001 0.0232054851920 -3.640894438521 0.9997258531510 -80.67580611194 0.9997258531510 -80.67580611194 0.0232072667695 22.307543558868
8.764300000000000 0.0231973978043 -3.647358391806 0.9997260321895 -80.67721007371 0.9997260321895 -80.67721007371 0.0231991840364 22.311246274561
8.764400000000000 0.0231892668212 -3.653854457103 0.9997262121052 -80.67861661540 0.9997262121052 -80.67861661540 0.0231910577470 22.314976334788
8.764500000000000 0.0231810918845 -3.660382930880 0.9997263929049 -80.68002575830 0.9997263929049 -80.68002575830 0.0231828875433 22.318733995853
8.764600000000000 0.0231728726469 -3.666944102829 0.9997265745951 -80.68143752307 0.9997265745951 -80.68143752307 0.0231746730783 22.322519510026
8.764700000000001 0.0231646087594 -3.673538261814 0.9997267571810 -80.68285193043 0.9997267571810 -80.68285193043 0.0231664140041 22.326333133842
8.764800000000001 0.0231562998412 -3.680165721848 0.9997269406697 -80.68426900303 0.9997269406697 -80.68426900303 0.0231581099401 22.330175139822
8.764900000000001 0.0231479455342 -3.686826783966 0.9997271250682 -80.68568876215 0.9997271250682 -80.68568876215 0.0231497605285 22.334045788275
8.765000000000001 0.0231395454667 -3.693521756611 0.9997273103826 -80.68711122990 0.9997273103826 -80.68711122990 0.0231413653982 22.337945350776
8.765100000000000 0.0231310992846 -3.700250939579 0.9997274966194 -80.68853642734 0.9997274966194 -80.68853642734 0.0231329241956 22.341874088621
8.765200000000000 0.0231226065887 -3.707014663905 0.9997276837863 -80.68996437820 0.9997276837863 -80.68996437820 0.0231244365218 22.345832288475
8.765300000000000 0.0231140669982 -3.713813247477 0.9997278718895 -80.69139510511 0.9997278718895 -80.69139510511 0.0231159019966 22.349820230427
8.765400000000001 0.0231054801210 -3.720647014634 0.9997280609347 -80.69282863137 0.9997280609347 -80.69282863137 0.0231073202292 22.353838203713
8.765500000000001 0.0230968456026 -3.727516281098 0.9997282509325 -80.69426497815 0.9997282509325 -80.69426497815 0.0230986908635 22.357886465197
8.765600000000001 0.0230881630051 -3.734421393265 0.9997284418854 -80.69570417138 0.9997284418854 -80.69570417138 0.0230900134646 22.361965341221
8.765700000000001 0.0230794319543 -3.741362678597 0.9997286338029 -80.69714623338 0.9997286338029 -80.69714623338 0.0230812876575 22.366075105448
8.765800000000000 0.0230706520376 -3.748340485337 0.9997288266932 -80.69859118870 0.9997288266932 -80.69859118870 0.0230725130297 22.370216058796
8.765900000000000 0.0230618228536 -3.755355147336 0.9997290205607 -80.70003906118 0.9997290205607 -80.70003906118 0.0230636891816 22.374388504946
8.766000000000000 0.0230529439874 -3.762407019422 0.9997292154145 -80.70148987551 0.9997292154145 -80.70148987551 0.0230548156981 22.378592746916
8.766100000000000 0.0230440150161 -3.769496458392 0.9997294112620 -80.70294365686 0.9997294112620 -80.70294365686 0.0230458921570 22.382829097633
8.766200000000001 0.0230350355331 -3.776623809215 0.9997296081090 -80.70440042941 0.9997296081090 -80.70440042941 0.0230369181526 22.387097864751
8.766300000000001 0.0230260050993 -3.783789445621 0.9997298059645 -80.70586021929 0.9997298059645 -80.70586021929 0.0230278932458 22.391399370153
8.766400000000001 0.0230169232721 -3.790993744066 0.9997300048371 -80.70732305284 0.9997300048371 -80.70732305284 0.0230188169946 22.395733939781
8.766500000000001 0.0230077896513 -3.798237048040 0.9997302047319 -80.70878895387 0.9997302047319 -80.70878895387 0.0230096889999 22.400101883760
8.766600000000000 0.0229986037671 -3.805519754931 0.9997304056581 -80.71025795032 0.9997304056581 -80.71025795032 0.0230005087923 22.404503546302
8.766700000000000 0.0229893651819 -3.812842241900 0.9997306076236 -80.71173006826 0.9997306076236 -80.71173006826 0.0229912759346 22.408939255994
8.766800000000000 0.0229800734375 -3.820204900050 0.9997308106367 -80.71320533495 0.9997308106367 -80.71320533495 0.0229819899691 22.413409355524
8.766900000000000 0.0229707281053 -3.827608098901 0.9997310147034 -80.71468377589 0.9997310147034 -80.71468377589 0.0229726504684 22.417914175936
8.767000000000001 0.0229613286761 -3.835052266578 0.9997312198327 -80.71616542137 0.9997312198327 -80.71616542137 0.0229632569241 22.422454091550
8.767100000000001 0.0229518747106 -3.842537791122 0.9997314260339 -80.71765029758 0.9997314260339 -80.71765029758 0.0229538088967 22.427029435521
8.767200000000001 0.0229423657539 -3.850065066332 0.9997316333144 -80.71913843160 0.9997316333144 -80.71913843160 0.0229443059321 22.431640556947
8.767300000000001 0.0229328013047 -3.857634517384 0.9997318416818 -80.72062985324 0.9997318416818 -80.72062985324 0.0229347475302 22.436287833596
8.767400000000000 0.0229231808809 -3.865246565491 0.9997320511461 -80.72212459123 0.9997320511461 -80.72212459123 0.0229251332090 22.440971627908
8.767500000000000 0.0229135040037 -3.872901624333 0.9997322617144 -80.72362267406 0.9997322617144 -80.72362267406 0.0229154624908 22.445692309009
8.767600000000000 0.0229037701666 -3.880600129933 0.9997324733953 -80.72512413190 0.9997324733953 -80.72512413190 0.0229057348699 22.450450261263
8.767700000000001 0.0228939788855 -3.888342507270 0.9997326861974 -80.72662899357 0.9997326861974 -80.72662899357 0.0228959498627 22.455245856717
8.767800000000001 0.0228841296276 -3.896129214089 0.9997329001298 -80.72813729079 0.9997329001298 -80.72813729079 0.0228861069375 22.460079497938
8.767900000000001 0.0228742219018 -3.903960684341 0.9997331152017 -80.72964905284 0.9997331152017 -80.72964905284 0.0228762056032 22.464951564609
8.768000000000001 0.0228642551864 -3.911837373274 0.9997333314221 -80.73116431077 0.9997333314221 -80.73116431077 0.0228662453391 22.469862456139
8.768100000000000 0.0228542289576 -3.919759737335 0.9997335487993 -80.73268309579 0.9997335487993 -80.73268309579 0.0228562256222 22.474812577539
8.768200000000000 0.0228441426751 -3.927728245261 0.9997337673418 -80.73420544006 0.9997337673418 -80.73420544006 0.0228461459136 22.479802345576
8.768300000000000 0.0228339958214 -3.935743359724 0.9997339870600 -80.73573137445 0.9997339870600 -80.73573137445 0.0228360056957 22.484832160212
8.768400000000000 0.0228237878383 -3.943805564624 0.9997342079622 -80.73726093218 0.9997342079622 -80.73726093218 0.0228258044117 22.489902453846
8.768500000000001 0.0228135181772 -3.951915344455 0.9997344300581 -80.73879414594 0.9997344300581 -80.73879414594 0.0228155415137 22.495013651137
8.768600000000001 0.0228031862804 -3.960073194065 0.9997346533586 -80.74033104898 0.9997346533586 -80.74033104898 0.0228052164442 22.500166182671
8.768700000000001 0.0227927916109 -3.968279588513 0.9997348778707 -80.74187167330 0.9997348778707 -80.74187167330 0.0227948286679 22.505360476658
8.768800000000001 0.0227823335377 -3.976535074999 0.9997351036061 -80.74341605647 0.9997351036061 -80.74341605647 0.0227843775543 22.510597011063
8.768900000000000 0.0227718115295 -3.984840134991 0.9997353305739 -80.74496423018 0.9997353305739 -80.74496423018 0.0227738625729 22.515876210841
8.769000000000000 0.0227612250068 -3.993195283280 0.9997355587834 -80.74651622897 0.9997355587834 -80.74651622897 0.0227632831451 22.521198531918
8.769100000000000 0.0227505733727 -4.001601048794 0.9997357882446 -80.74807208841 0.9997357882446 -80.74807208841 0.0227526386752 22.526564442534
8.769200000000000 0.0227398560173 -4.010057976147 0.9997360189690 -80.74963184487 0.9997360189690 -80.74963184487 0.0227419285535 22.531974417222
8.769300000000001 0.0227290723153 -4.018566615486 0.9997362509658 -80.75119553560 0.9997362509658 -80.75119553560 0.0227311521564 22.537428948423
8.769400000000001 0.0227182216988 -4.027127485995 0.9997364842447 -80.75276319449 0.9997364842447 -80.75276319449 0.0227203089166 22.542928494078
8.769500000000001 0.0227073035318 -4.035741154439 0.9997367188166 -80.75433485944 0.9997367188166 -80.75433485944 0.0227093981991 22.548473554296
8.769600000000001 0.0226963171601 -4.044408203039 0.9997369546928 -80.75591056946 0.9997369546928 -80.75591056946 0.0226984193505 22.554064642289
8.769700000000000 0.0226852619856 -4.053129176435 0.9997371918823 -80.75749036023 0.9997371918823 -80.75749036023 0.0226873717741 22.559702244118
8.769800000000000 0.0226741373454 -4.061904671715 0.9997374303978 -80.75907427129 0.9997374303978 -80.75907427129 0.0226762548073 22.565386880732
8.769900000000000 0.0226629425728 -4.070735281774 0.9997376702482 -80.76066234236 0.9997376702482 -80.76066234236 0.0226650677854 22.571119086700
8.770000000000001 0.0226516770358 -4.079621588167 0.9997379114452 -80.76225461118 0.9997379114452 -80.76225461118 0.0226538100768 22.576899371756
8.770100000000001 0.0226403400398 -4.088564217791 0.9997381540017 -80.76385111918 0.9997381540017 -80.76385111918 0.0226424809875 22.582728284604