! Sonnet Data File
! From: emgraph Version : 16.52
! From Project: 171117_Xmon_fullysym
! Data is De-embedded 
! Data File Written: 11/26/2017 21:44:47
!< HDATE 11/26/2017 17:24:49
!< MDATE 11/26/2017 17:24:49
!< PARAMS
!< Lj = 11.0
!< Gap = 1.0
!< Pwid = 2000.0
!< Airgap = 6.0
!< Width = 10.0
!< Lj1 = 11.4
!< END PARAMS
# GHZ S MA R 50.90000
8.600000000000001 0.0273359823720 0.4206816093682 0.9996224700285 -78.91149668783 0.9996224700285 -78.91149668810 0.0273370522029 21.768047902625
!< P1 F=8.6 Eeff=(6.44845572 -2.9799e-5) Z0=(50.9087207 1.17006e-4) R=0.0 C=0.0 
!< P2 F=8.6 Eeff=(6.44845572 -2.9799e-5) Z0=(50.9087207 1.17006e-4) R=0.0 C=0.0 
8.600200000000001 0.0273295089917 0.4157414975368 0.9996226508592 -78.91372782014 0.9996226508592 -78.91372782014 0.0273305778535 21.768512489442
8.600400000000000 0.0273230768839 0.4108167957216 0.9996228304362 -78.91595655908 0.9996228304362 -78.91595655908 0.0273241447742 21.768966631374
8.600600000000000 0.0273166855944 0.4059073466383 0.9996230088145 -78.91818292898 0.9996230088145 -78.91818292898 0.0273177525249 21.769410408586
8.600800000000001 0.0273103346846 0.4010129934056 0.9996231860069 -78.92040695528 0.9996231860069 -78.92040695528 0.0273114006671 21.769843927138
8.601000000000001 0.0273040237086 0.3961335736234 0.9996233620273 -78.92262866384 0.9996233620273 -78.92262866384 0.0273050887544 21.770267293719
8.601200000000000 0.0272977522300 0.3912689295880 0.9996235368890 -78.92484807998 0.9996235368890 -78.92484807998 0.0272988163504 21.770680613730
8.601400000000000 0.0272915198164 0.3864189058281 0.9996237106044 -78.92706522876 0.9996237106044 -78.92706522876 0.0272925830229 21.771083992841
8.601600000000001 0.0272853260459 0.3815833477961 0.9996238831872 -78.92928013467 0.9996238831872 -78.92928013467 0.0272863883492 21.771477531560
8.601800000000001 0.0272791704952 0.3767621020470 0.9996240546501 -78.93149282225 0.9996240546501 -78.93149282225 0.0272802319063 21.771861332479
8.602000000000000 0.0272730527491 0.3719550183723 0.9996242250054 -78.93370331559 0.9996242250054 -78.93370331559 0.0272741132786 21.772235497331
8.602200000000000 0.0272669724052 0.3671619512753 0.9996243942650 -78.93591163803 0.9996243942650 -78.93591163803 0.0272680320638 21.772600123570
8.602400000000001 0.0272609290569 0.3623827517375 0.9996245624416 -78.93811781315 0.9996245624416 -78.93811781315 0.0272619878550 21.772955309735
8.602600000000001 0.0272549223129 0.3576172778839 0.9996247295470 -78.94032186365 0.9996247295470 -78.94032186365 0.0272559802607 21.773301150698
8.602800000000000 0.0272489517755 0.3528653851304 0.9996248955930 -78.94252381260 0.9996248955930 -78.94252381260 0.0272500088834 21.773637744163
8.603000000000000 0.0272430170574 0.3481269317720 0.9996250605916 -78.94472368246 0.9996250605916 -78.94472368246 0.0272440733352 21.773965184147
8.603200000000001 0.0272371177812 0.3434017810050 0.9996252245537 -78.94692149513 0.9996252245537 -78.94692149513 0.0272381732390 21.774283563352
8.603400000000001 0.0272312535695 0.3386897944438 0.9996253874911 -78.94911727250 0.9996253874911 -78.94911727250 0.0272323082170 21.774592973456
8.603600000000000 0.0272254240473 0.3339908349421 0.9996255494150 -78.95131103631 0.9996255494150 -78.95131103631 0.0272264778942 21.774893506373
8.603800000000000 0.0272196288504 0.3293047699465 0.9996257103363 -78.95350280770 0.9996257103363 -78.95350280770 0.0272206819061 21.775185251846
8.604000000000001 0.0272138676164 0.3246314667831 0.9996258702659 -78.95569260770 0.9996258702659 -78.95569260770 0.0272149198904 21.775468298573
8.604200000000001 0.0272081399947 0.3199707969472 0.9996260292145 -78.95788045662 0.9996260292145 -78.95788045662 0.0272091914964 21.775742731927
8.604400000000000 0.0272024456201 0.3153226272264 0.9996261871926 -78.96006637567 0.9996261871926 -78.96006637567 0.0272034963586 21.776008643682
8.604600000000001 0.0271967841578 0.3106868339921 0.9996263442110 -78.96225038427 0.9996263442110 -78.96225038427 0.0271978341420 21.776266113913
8.604800000000001 0.0271911552522 0.3060632873225 0.9996265002798 -78.96443250303 0.9996265002798 -78.96443250303 0.0271922044913 21.776515232091
8.605000000000000 0.0271855585766 0.3014518676373 0.9996266554090 -78.96661275092 0.9996266554090 -78.96661275092 0.0271866070793 21.776756077987
8.605200000000000 0.0271799937825 0.2968524461601 0.9996268096090 -78.96879114816 0.9996268096090 -78.96879114816 0.0271810415575 21.776988738289
8.605400000000001 0.0271744605558 0.2922649080322 0.9996269628894 -78.97096771296 0.9996269628894 -78.97096771296 0.0271755076118 21.777213289797
8.605600000000001 0.0271689585525 0.2876891254915 0.9996271152606 -78.97314246529 0.9996271152606 -78.97314246529 0.0271700048979 21.777429818235
8.605800000000000 0.0271634874656 0.2831249877513 0.9996272667311 -78.97531542293 0.9996272667311 -78.97531542293 0.0271645331090 21.777638400198
8.606000000000000 0.0271580469654 0.2785723710928 0.9996274173116 -78.97748660505 0.9996274173116 -78.97748660505 0.0271590919149 21.777839116877
8.606200000000001 0.0271526367462 0.2740311640244 0.9996275670108 -78.97965602936 0.9996275670108 -78.97965602936 0.0271536810101 21.778032044280
8.606400000000001 0.0271472564932 0.2695012501458 0.9996277158382 -78.98182371412 0.9996277158382 -78.98182371412 0.0271483000796 21.778217261017
8.606600000000000 0.0271419059025 0.2649825169805 0.9996278638030 -78.98398967698 0.9996278638030 -78.98398967698 0.0271429488192 21.778394842330
8.606800000000000 0.0271365846683 0.2604748519173 0.9996280109142 -78.98615393567 0.9996280109142 -78.98615393567 0.0271376269234 21.778564865057
8.607000000000001 0.0271312924991 0.2559781470490 0.9996281571807 -78.98831650710 0.9996281571807 -78.98831650710 0.0271323341003 21.778727401257
8.607200000000001 0.0271260290890 0.2514922898851 0.9996283026110 -78.99047740903 0.9996283026109 -78.99047740903 0.0271270700442 21.778882528849
8.607400000000000 0.0271207941574 0.2470171752458 0.9996284472143 -78.99263665772 0.9996284472143 -78.99263665772 0.0271218344742 21.779030315868
8.607600000000000 0.0271155874068 0.2425526932749 0.9996285909992 -78.99479427045 0.9996285909992 -78.99479427045 0.0271166270925 21.779170838101
8.607800000000001 0.0271104085641 0.2380987437367 0.9996287339735 -78.99695026305 0.9996287339735 -78.99695026305 0.0271114476264 21.779304163975
8.608000000000001 0.0271052573368 0.2336552166391 0.9996288761464 -78.99910465250 0.9996288761464 -78.99910465250 0.0271062957829 21.779430366503
8.608200000000000 0.0271001334565 0.2292220129359 0.9996290175258 -79.00125745438 0.9996290175258 -79.00125745438 0.0271011712937 21.779549512839
8.608400000000001 0.0270950366421 0.2247990286999 0.9996291581197 -79.00340868499 0.9996291581197 -79.00340868499 0.0270960738776 21.779661674721
8.608600000000001 0.0270899666267 0.2203861638890 0.9996292979365 -79.00555835982 0.9996292979365 -79.00555835982 0.0270910032676 21.779766918370
8.608800000000000 0.0270849231432 0.2159833197047 0.9996294369839 -79.00770649436 0.9996294369839 -79.00770649436 0.0270859591965 21.779865311611
8.609000000000000 0.0270799059230 0.2115903960958 0.9996295752697 -79.00985310420 0.9996295752697 -79.00985310420 0.0270809413957 21.779956922349
8.609200000000001 0.0270749147103 0.2072072974459 0.9996297128019 -79.01199820419 0.9996297128019 -79.01199820419 0.0270759496091 21.780041814563
8.609400000000001 0.0270699492415 0.2028339256147 0.9996298495881 -79.01414180962 0.9996298495881 -79.01414180962 0.0270709835733 21.780120055519
8.609600000000000 0.0270650092708 0.1984701890549 0.9996299856358 -79.01628393476 0.9996299856358 -79.01628393476 0.0270660430422 21.780191706672
8.609800000000000 0.0270600945330 0.1941159885485 0.9996301209525 -79.01842459498 0.9996301209525 -79.01842459498 0.0270611277506 21.780256836237
8.610000000000001 0.0270552047891 0.1897712351497 0.9996302555456 -79.02056380416 0.9996302555456 -79.02056380416 0.0270562374597 21.780315504101
8.610200000000001 0.0270503397909 0.1854358357287 0.9996303894223 -79.02270157671 0.9996303894223 -79.02270157671 0.0270513719207 21.780367773274
8.610400000000000 0.0270454992938 0.1811096990354 0.9996305225899 -79.02483792681 0.9996305225899 -79.02483792681 0.0270465308893 21.780413706285
8.610600000000000 0.0270406830546 0.1767927336575 0.9996306550557 -79.02697286859 0.9996306550557 -79.02697286859 0.0270417141221 21.780453364784
8.610800000000001 0.0270358908416 0.1724848532491 0.9996307868264 -79.02910641547 0.9996307868264 -79.02910641547 0.0270369213874 21.780486807792
8.611000000000001 0.0270311224134 0.1681859671033 0.9996309179092 -79.03123858148 0.9996309179092 -79.03123858148 0.0270321524437 21.780514096973
8.611200000000000 0.0270263775440 0.1638959900808 0.9996310483109 -79.03336937973 0.9996310483109 -79.03336937973 0.0270274070648 21.780535289536
8.611400000000000 0.0270216559975 0.1596148342201 0.9996311780384 -79.03549882390 0.9996311780384 -79.03549882390 0.0270226850149 21.780550446358
8.611600000000001 0.0270169575523 0.1553424166122 0.9996313070980 -79.03762692686 0.9996313070980 -79.03762692686 0.0270179860724 21.780559624094
8.611800000000001 0.0270122819844 0.1510786518133 0.9996314354968 -79.03975370161 0.9996314354968 -79.03975370161 0.0270133100129 21.780562879187
8.612000000000000 0.0270076290671 0.1468234559625 0.9996315632410 -79.04187916130 0.9996315632410 -79.04187916130 0.0270086566100 21.780560271115
8.612200000000001 0.0270029985810 0.1425767461928 0.9996316903371 -79.04400331866 0.9996316903371 -79.04400331866 0.0270040256442 21.780551855904
8.612400000000001 0.0269983903154 0.1383384417923 0.9996318167920 -79.04612618593 0.9996318167920 -79.04612618593 0.0269994169044 21.780537686041
8.612600000000000 0.0269938040514 0.1341084618215 0.9996319426114 -79.04824777581 0.9996319426114 -79.04824777581 0.0269948301719 21.780517819442
8.612800000000000 0.0269892395752 0.1298867249337 0.9996320678019 -79.05036810070 0.9996320678019 -79.05036810070 0.0269902652329 21.780492310632
8.613000000000001 0.0269846966824 0.1256731541506 0.9996321923697 -79.05248717247 0.9996321923697 -79.05248717247 0.0269857218827 21.780461211953
8.613200000000001 0.0269801751622 0.1214676700398 0.9996323163206 -79.05460500335 0.9996323163206 -79.05460500335 0.0269811999107 21.780424578267
8.613400000000000 0.0269756748109 0.1172701953624 0.9996324396609 -79.05672160517 0.9996324396609 -79.05672160517 0.0269766991130 21.780382461748
8.613600000000000 0.0269711954237 0.1130806526651 0.9996325623967 -79.05883698981 0.9996325623967 -79.05883698981 0.0269722192846 21.780334915385
8.613800000000001 0.0269667368038 0.1088989685536 0.9996326845331 -79.06095116869 0.9996326845331 -79.06095116869 0.0269677602290 21.780281990844
8.614000000000001 0.0269622987495 0.1047250652418 0.9996328060769 -79.06306415352 0.9996328060769 -79.06306415352 0.0269633217443 21.780223739119
8.614200000000000 0.0269578810675 0.1005588698224 0.9996329270335 -79.06517595551 0.9996329270335 -79.06517595551 0.0269589036369 21.780160210595
8.614400000000000 0.0269534835589 0.0964003073343 0.9996330474085 -79.06728658623 0.9996330474085 -79.06728658623 0.0269545057081 21.780091457579
8.614600000000001 0.0269491060363 0.0922493065628 0.9996331672075 -79.06939605652 0.9996331672075 -79.06939605652 0.0269501277705 21.780017528191
8.614800000000001 0.0269447483093 0.0881057950891 0.9996332864363 -79.07150437747 0.9996332864363 -79.07150437747 0.0269457696335 21.779938471827
8.615000000000000 0.0269404101848 0.0839696995900 0.9996334051003 -79.07361156026 0.9996334051003 -79.07361156026 0.0269414311039 21.779854339219
8.615200000000000 0.0269360914847 0.0798409525720 0.9996335232049 -79.07571761523 0.9996335232049 -79.07571761523 0.0269371120037 21.779765176192
8.615400000000001 0.0269317920234 0.0757194832269 0.9996336407554 -79.07782255317 0.9996336407554 -79.07782255317 0.0269328121472 21.779671031257
8.615600000000001 0.0269275116163 0.0716052210728 0.9996337577575 -79.07992638478 0.9996337577575 -79.07992638478 0.0269285313496 21.779571952582
8.615800000000000 0.0269232500829 0.0674980977239 0.9996338742162 -79.08202912054 0.9996338742162 -79.08202912054 0.0269242694306 21.779467987441
8.616000000000000 0.0269190072494 0.0633980471431 0.9996339901366 -79.08413077054 0.9996339901366 -79.08413077054 0.0269200262163 21.779359181394
8.616200000000001 0.0269147829344 0.0593049997981 0.9996341055240 -79.08623134532 0.9996341055240 -79.08623134532 0.0269158015250 21.779245581930
8.616400000000001 0.0269105769677 0.0552188909089 0.9996342203835 -79.08833085474 0.9996342203835 -79.08833085474 0.0269115951868 21.779127233252
8.616600000000000 0.0269063891757 0.0511396540875 0.9996343347201 -79.09042930889 0.9996343347201 -79.09042930889 0.0269074070278 21.779004181342
8.616800000000001 0.0269022193870 0.0470672237052 0.9996344485390 -79.09252671772 0.9996344485390 -79.09252671772 0.0269032368767 21.778876470600
8.617000000000001 0.0268980674347 0.0430015365522 0.9996345618447 -79.09462309090 0.9996345618447 -79.09462309090 0.0268990845665 21.778744145661
8.617200000000000 0.0268939331487 0.0389425268423 0.9996346746425 -79.09671843833 0.9996346746425 -79.09671843833 0.0268949499270 21.778607250664
8.617400000000000 0.0268898163658 0.0348901316785 0.9996347869373 -79.09881276947 0.9996347869373 -79.09881276947 0.0268908327950 21.778465828036
8.617600000000001 0.0268857169203 0.0308442893778 0.9996348987332 -79.10090609394 0.9996348987332 -79.10090609394 0.0268867330049 21.778319923280
8.617800000000001 0.0268816346530 0.0268049372708 0.9996350100356 -79.10299842100 0.9996350100356 -79.10299842100 0.0268826503971 21.778169576829
8.618000000000000 0.0268775694014 0.0227720138138 0.9996351208489 -79.10508976005 0.9996351208489 -79.10508976005 0.0268785848095 21.778014832228
8.618200000000000 0.0268735210082 0.0187454585788 0.9996352311776 -79.10718012024 0.9996352311776 -79.10718012024 0.0268745360845 21.777855730958
8.618400000000001 0.0268694893121 0.0147252091051 0.9996353410266 -79.10926951094 0.9996353410266 -79.10926951094 0.0268705040608 21.777692315634
8.618600000000001 0.0268654741629 0.0107112079571 0.9996354504003 -79.11135794085 0.9996354504003 -79.11135794085 0.0268664885882 21.777524625965
8.618800000000000 0.0268614754032 0.0067033947677 0.9996355593031 -79.11344541913 0.9996355593031 -79.11344541913 0.0268624895091 21.777352703910
8.619000000000000 0.0268574928821 0.0027017115205 0.9996356677395 -79.11553195453 0.9996356677395 -79.11553195453 0.0268585066728 21.777176589586
8.619200000000001 0.0268535264498 -1.293899793e-3 0.9996357757138 -79.11761755575 0.9996357757138 -79.11761755575 0.0268545399293 21.776996322350
8.619400000000001 0.0268495759542 -5.283497651e-3 0.9996358832305 -79.11970223162 0.9996358832305 -79.11970223162 0.0268505891265 21.776811942941
8.619600000000000 0.0268456412496 -9.267138316e-3 0.9996359902938 -79.12178599059 0.9996359902938 -79.12178599059 0.0268466541186 21.776623489956
8.619800000000000 0.0268417221880 -0.013244879124 0.9996360969082 -79.12386884127 0.9996360969082 -79.12386884127 0.0268427347577 21.776431002845
8.620000000000001 0.0268378186234 -0.017216775722 0.9996362030774 -79.12595079212 0.9996362030774 -79.12595079212 0.0268388308977 21.776234521311
8.620200000000001 0.0268339304159 -0.021182883240 0.9996363088062 -79.12803185128 0.9996363088062 -79.12803185128 0.0268349423986 21.776034081203
8.620400000000000 0.0268300574199 -0.025143256452 0.9996364140980 -79.13011202718 0.9996364140980 -79.13011202718 0.0268310691149 21.775829723120
8.620600000000001 0.0268261994951 -0.029097951106 0.9996365189575 -79.13219132799 0.9996365189575 -79.13219132799 0.0268272109062 21.775621483459
8.620800000000001 0.0268223565035 -0.033047019584 0.9996366233883 -79.13426976171 0.9996366233883 -79.13426976171 0.0268233676345 21.775409399729
8.621000000000000 0.0268185283071 -0.036990516194 0.9996367273948 -79.13634733635 0.9996367273948 -79.13634733635 0.0268195391616 21.775193508413
8.621200000000000 0.0268147147666 -0.040928494356 0.9996368309807 -79.13842406000 0.9996368309807 -79.13842406000 0.0268157253483 21.774973847334
8.621400000000001 0.0268109157488 -0.044861005685 0.9996369341499 -79.14049994041 0.9996369341499 -79.14049994041 0.0268119260614 21.774750452467
8.621600000000001 0.0268071311192 -0.048788103262 0.9996370369066 -79.14257498537 0.9996370369066 -79.14257498537 0.0268081411663 21.774523358994
8.621800000000000 0.0268033607446 -0.052709837761 0.9996371392543 -79.14464920262 0.9996371392543 -79.14464920262 0.0268043705298 21.774292603931
8.622000000000000 0.0267996044922 -0.056626261338 0.9996372411969 -79.14672259988 0.9996372411969 -79.14672259988 0.0268006140190 21.774058222384
8.622200000000001 0.0267958622339 -0.060537423776 0.9996373427383 -79.14879518457 0.9996373427383 -79.14879518457 0.0267968715059 21.773820249044
8.622400000000001 0.0267921338403 -0.064443374980 0.9996374438819 -79.15086696422 0.9996374438819 -79.15086696422 0.0267931428610 21.773578719100
8.622600000000000 0.0267884191820 -0.068344166719 0.9996375446321 -79.15293794634 0.9996375446321 -79.15293794634 0.0267894279547 21.773333666587
8.622800000000000 0.0267847181338 -0.072239845990 0.9996376449916 -79.15500813819 0.9996376449916 -79.15500813819 0.0267857266621 21.773085126673
8.623000000000001 0.0267810305657 -0.076130464768 0.9996377449648 -79.15707754734 0.9996377449648 -79.15707754734 0.0267820388530 21.772833133895
8.623200000000001 0.0267773563626 -0.080016067072 0.9996378445548 -79.15914618046 0.9996378445548 -79.15914618046 0.0267783644123 21.772577719535
8.623400000000000 0.0267736953916 -0.083896705417 0.9996379437653 -79.16121404527 0.9996379437653 -79.16121404527 0.0267747032069 21.772318919900
8.623600000000000 0.0267700475364 -0.087772425402 0.9996380426001 -79.16328114852 0.9996380426001 -79.16328114852 0.0267710551207 21.772056765788
8.623800000000001 0.0267664126724 -0.091643275659 0.9996381410625 -79.16534749746 0.9996381410625 -79.16534749746 0.0267674200289 21.771791291710
8.624000000000001 0.0267627906838 -0.095509300886 0.9996382391557 -79.16741309879 0.9996382391557 -79.16741309879 0.0267637978159 21.771522529243
8.624200000000000 0.0267591814480 -0.099370549590 0.9996383368834 -79.16947795965 0.9996383368834 -79.16947795965 0.0267601883589 21.771250511711
8.624400000000001 0.0267555848489 -0.103227067132 0.9996384342489 -79.17154208678 0.9996384342489 -79.17154208678 0.0267565915418 21.770975270806
8.624600000000001 0.0267520007705 -0.107078899448 0.9996385312557 -79.17360548692 0.9996385312557 -79.17360548692 0.0267530072485 21.770696837918
8.624800000000000 0.0267484290980 -0.110926091099 0.9996386279069 -79.17566816673 0.9996386279069 -79.17566816673 0.0267494353642 21.770415244377
8.625000000000000 0.0267448697132 -0.114768688508 0.9996387242059 -79.17773013307 0.9996387242059 -79.17773013307 0.0267458757709 21.770130523170
8.625200000000001 0.0267413225077 -0.118606734731 0.9996388201561 -79.17979139224 0.9996388201561 -79.17979139224 0.0267423283598 21.769842702913
8.625400000000001 0.0267377873649 -0.122440274431 0.9996389157602 -79.18185195102 0.9996389157602 -79.18185195102 0.0267387930147 21.769551817137
8.625600000000000 0.0267342641726 -0.126269353061 0.9996390110221 -79.18391181592 0.9996390110221 -79.18391181592 0.0267352696231 21.769257895505
8.625800000000000 0.0267307528249 -0.130094012351 0.9996391059447 -79.18597099309 0.9996391059447 -79.18597099309 0.0267317580790 21.768960966711
8.626000000000001 0.0267272532085 -0.133914296205 0.9996392005311 -79.18802948911 0.9996392005311 -79.18802948911 0.0267282582693 21.768661062862
8.626200000000001 0.0267237652154 -0.137730247171 0.9996392947842 -79.19008731026 0.9996392947842 -79.19008731026 0.0267247700858 21.768358213681
8.626400000000000 0.0267202887404 -0.141541907213 0.9996393887074 -79.19214446264 0.9996393887074 -79.19214446264 0.0267212934234 21.768052447581
8.626600000000000 0.0267168236719 -0.145349320216 0.9996394823037 -79.19420095274 0.9996394823037 -79.19420095274 0.0267178281705 21.767743795832
8.626800000000001 0.0267133699090 -0.149152526614 0.9996395755762 -79.19625678642 0.9996395755762 -79.19625678642 0.0267143742260 21.767432285607
8.627000000000001 0.0267099273466 -0.152951566863 0.9996396685276 -79.19831196978 0.9996396685276 -79.19831196978 0.0267109314849 21.767117946811
8.627200000000000 0.0267064958767 -0.156746484480 0.9996397611612 -79.20036650910 0.9996397611612 -79.20036650910 0.0267074998391 21.766800809038
8.627400000000000 0.0267030753992 -0.160537319034 0.9996398534798 -79.20242041019 0.9996398534798 -79.20242041019 0.0267040791887 21.766480899662
8.627600000000001 0.0266996658123 -0.164324110803 0.9996399454864 -79.20447367896 0.9996399454864 -79.20447367896 0.0267006694316 21.766158247200
8.627800000000001 0.0266962670110 -0.168106901354 0.9996400371838 -79.20652632152 0.9996400371838 -79.20652632152 0.0266972704629 21.765832881147
8.628000000000000 0.0266928789016 -0.171885727855 0.9996401285749 -79.20857834331 0.9996401285749 -79.20857834331 0.0266938821889 21.765504826826
8.628200000000001 0.0266895013789 -0.175660632083 0.9996402196625 -79.21062975044 0.9996402196625 -79.21062975044 0.0266905045043 21.765174114204
8.628400000000001 0.0266861343448 -0.179431653527 0.9996403104498 -79.21268054860 0.9996403104498 -79.21268054860 0.0266871373111 21.764840769817
8.628600000000000 0.0266827777026 -0.183198829535 0.9996404009389 -79.21473074341 0.9996404009389 -79.21473074341 0.0266837805125 21.764504821800
8.628800000000000 0.0266794313538 -0.186962200567 0.9996404911332 -79.21678034060 0.9996404911332 -79.21678034060 0.0266804340100 21.764166296500
8.629000000000001 0.0266760952052 -0.190721803036 0.9996405810350 -79.21882934559 0.9996405810350 -79.21882934559 0.0266770977102 21.763825220498
8.629200000000001 0.0266727691580 -0.194477676421 0.9996406706474 -79.22087776410 0.9996406706474 -79.22087776410 0.0266737715146 21.763481621311
8.629400000000000 0.0266694531186 -0.198229858027 0.9996407599728 -79.22292560158 0.9996407599728 -79.22292560158 0.0266704553295 21.763135525331
8.629600000000000 0.0266661469937 -0.201978385473 0.9996408490141 -79.22497286346 0.9996408490141 -79.22497286346 0.0266671490614 21.762786958362
8.629800000000001 0.0266628506876 -0.205723296760 0.9996409377740 -79.22701955528 0.9996409377740 -79.22701955528 0.0266638526147 21.762435947539
8.630000000000001 0.0266595641107 -0.209464627345 0.9996410262548 -79.22906568226 0.9996410262548 -79.22906568226 0.0266605658998 21.762082518144
8.630200000000000 0.0266562871714 -0.213202414437 0.9996411144593 -79.23111124972 0.9996411144593 -79.23111124972 0.0266572888250 21.761726695513
8.630400000000000 0.0266530197769 -0.216936694597 0.9996412023901 -79.23315626304 0.9996412023901 -79.23315626304 0.0266540212977 21.761368506390
8.630600000000001 0.0266497618361 -0.220667504736 0.9996412900497 -79.23520072752 0.9996412900497 -79.23520072752 0.0266507632265 21.761007976175
8.630800000000001 0.0266465132612 -0.224394880757 0.9996413774410 -79.23724464827 0.9996413774410 -79.23724464827 0.0266475145237 21.760645128959
8.631000000000000 0.0266432739633 -0.228118857289 0.9996414645661 -79.23928803045 0.9996414645661 -79.23928803045 0.0266442751004 21.760279990744
8.631200000000000 0.0266400438550 -0.231839469502 0.9996415514276 -79.24133087914 0.9996415514276 -79.24133087914 0.0266410448691 21.759912586175
8.631400000000001 0.0266368228472 -0.235556753646 0.9996416380280 -79.24337319950 0.9996416380280 -79.24337319950 0.0266378237408 21.759542940249
8.631600000000001 0.0266336108534 -0.239270744070 0.9996417243697 -79.24541499658 0.9996417243697 -79.24541499658 0.0266346116289 21.759171077753
8.631800000000000 0.0266304077896 -0.242981475306 0.9996418104554 -79.24745627525 0.9996418104554 -79.24745627525 0.0266314084495 21.758797021810
8.632000000000000 0.0266272135672 -0.246688982264 0.9996418962873 -79.24949704066 0.9996418962873 -79.24949704066 0.0266282141138 21.758420798518
8.632200000000001 0.0266240281054 -0.250393298022 0.9996419818678 -79.25153729751 0.9996419818678 -79.25153729751 0.0266250285411 21.758042430193
8.632400000000001 0.0266208513156 -0.254094458153 0.9996420671994 -79.25357705094 0.9996420671994 -79.25357705094 0.0266218516428 21.757661942516
8.632600000000000 0.0266176831182 -0.257792494399 0.9996421522841 -79.25561630557 0.9996421522841 -79.25561630557 0.0266186833394 21.757279358144
8.632800000000001 0.0266145234269 -0.261487442693 0.9996422371249 -79.25765506644 0.9996422371249 -79.25765506644 0.0266155235442 21.756894701246
8.633000000000001 0.0266113721624 -0.265179333959 0.9996423217236 -79.25969333813 0.9996423217236 -79.25969333813 0.0266123721782 21.756507995179
8.633200000000000 0.0266082292440 -0.268868201686 0.9996424060827 -79.26173112535 0.9996424060827 -79.26173112535 0.0266092291606 21.756119262239
8.633400000000000 0.0266050945859 -0.272554080550 0.9996424902046 -79.26376843308 0.9996424902046 -79.26376843308 0.0266060944056 21.755728527455
8.633600000000001 0.0266019681126 -0.276237000561 0.9996425740913 -79.26580526570 0.9996425740913 -79.26580526570 0.0266029678377 21.755335812601
8.633800000000001 0.0265988497430 -0.279916994958 0.9996426577451 -79.26784162794 0.9996426577451 -79.26784162794 0.0265998493758 21.754941140848
8.634000000000000 0.0265957393989 -0.283594095766 0.9996427411685 -79.26987752433 0.9996427411685 -79.26987752433 0.0265967389415 21.754544534339
8.634200000000000 0.0265926369933 -0.287268338064 0.9996428243635 -79.27191295993 0.9996428243635 -79.27191295993 0.0265936364480 21.754146018996
8.634400000000001 0.0265895424611 -0.290939748472 0.9996429073324 -79.27394793852 0.9996429073324 -79.27394793852 0.0265905418302 21.753745612355
8.634600000000001 0.0265864557194 -0.294608360147 0.9996429900770 -79.27598246493 0.9996429900770 -79.27598246493 0.0265874550051 21.753343339566
8.634800000000000 0.0265833766879 -0.298274206805 0.9996430726001 -79.27801654382 0.9996430726001 -79.27801654382 0.0265843758923 21.752939222924
8.635000000000000 0.0265803052959 -0.301937316629 0.9996431549035 -79.28005017930 0.9996431549035 -79.28005017930 0.0265813044212 21.752533282992
8.635200000000001 0.0265772414646 -0.305597722100 0.9996432369894 -79.28208337595 0.9996432369894 -79.28208337595 0.0265782405130 21.752125542862
8.635400000000001 0.0265741851180 -0.309255453499 0.9996433188597 -79.28411613818 0.9996433188597 -79.28411613818 0.0265751840917 21.751716024973
8.635600000000000 0.0265711361834 -0.312910542004 0.9996434005171 -79.28614847024 0.9996434005171 -79.28614847024 0.0265721350843 21.751304749071
8.635800000000000 0.0265680945866 -0.316563016303 0.9996434819629 -79.28818037641 0.9996434819629 -79.28818037641 0.0265690934171 21.750891738254
8.636000000000001 0.0265650602528 -0.320212908242 0.9996435631998 -79.29021186107 0.9996435631998 -79.29021186107 0.0265660590148 21.750477013314
8.636200000000001 0.0265620331092 -0.323860247063 0.9996436442296 -79.29224292842 0.9996436442296 -79.29224292842 0.0265630318050 21.750060595742
8.636400000000000 0.0265590130843 -0.327505062270 0.9996437250542 -79.29427358264 0.9996437250543 -79.29427358264 0.0265600117159 21.749642506461
8.636600000000001 0.0265560001044 -0.331147384252 0.9996438056760 -79.29630382801 0.9996438056760 -79.29630382801 0.0265569986739 21.749222766743
8.636800000000001 0.0265529940988 -0.334787241671 0.9996438860967 -79.29833366864 0.9996438860967 -79.29833366864 0.0265539926082 21.748801397610
8.637000000000000 0.0265499949962 -0.338424664011 0.9996439663183 -79.30036310866 0.9996439663183 -79.30036310866 0.0265509934476 21.748378419900
8.637200000000000 0.0265470027254 -0.342059681089 0.9996440463432 -79.30239215223 0.9996440463432 -79.30239215223 0.0265480011208 21.747953853924
8.637400000000001 0.0265440172167 -0.345692320902 0.9996441261728 -79.30442080340 0.9996441261728 -79.30442080340 0.0265450155582 21.747527720843
8.637600000000001 0.0265410384019 -0.349322611631 0.9996442058093 -79.30644906612 0.9996442058093 -79.30644906612 0.0265420366915 21.747100040432
8.637800000000000 0.0265380662096 -0.352950583226 0.9996442852547 -79.30847694455 0.9996442852547 -79.30847694455 0.0265390644492 21.746670833576
8.638000000000000 0.0265351005729 -0.356576262728 0.9996443645108 -79.31050444258 0.9996443645108 -79.31050444258 0.0265360987647 21.746240120221
8.638200000000001 0.0265321414212 -0.360199679927 0.9996444435797 -79.31253156432 0.9996444435797 -79.31253156432 0.0265331395671 21.745807920737
8.638400000000001 0.0265291886882 -0.363820861596 0.9996445224630 -79.31455831361 0.9996445224630 -79.31455831361 0.0265301867902 21.745374255388
8.638600000000000 0.0265262423067 -0.367439836302 0.9996446011630 -79.31658469438 0.9996446011630 -79.31658469438 0.0265272403666 21.744939143444
8.638800000000000 0.0265233022104 -0.371056630629 0.9996446796811 -79.31861071046 0.9996446796811 -79.31861071046 0.0265243002303 21.744502604945
8.639000000000001 0.0265203683299 -0.374671274032 0.9996447580195 -79.32063636590 0.9996447580194 -79.32063636590 0.0265213663117 21.744064660385
8.639200000000001 0.0265174406039 -0.378283791969 0.9996448361799 -79.32266166426 0.9996448361799 -79.32266166426 0.0265184385496 21.743625327429
8.639400000000000 0.0265145189611 -0.381894213586 0.9996449141642 -79.32468660969 0.9996449141642 -79.32468660969 0.0265155168726 21.743184628209
8.639600000000000 0.0265116033395 -0.385502565519 0.9996449919744 -79.32671120579 0.9996449919744 -79.32671120579 0.0265126012187 21.742742580156
8.639800000000001 0.0265086936731 -0.389108874456 0.9996450696120 -79.32873545641 0.9996450696120 -79.32873545641 0.0265096915218 21.742299203696
8.640000000000001 0.0265057898992 -0.392713166454 0.9996451470788 -79.33075936517 0.9996451470788 -79.33075936517 0.0265067877195 21.741854517473
8.640200000000000 0.0265028919523 -0.396315469236 0.9996452243767 -79.33278293591 0.9996452243767 -79.33278293591 0.0265038897460 21.741408540962