! Sonnet Data File
! From: emgraph Version : 16.52
! From Project: 171117_Xmon_fullysym
! Data is De-embedded 
! Data File Written: 11/26/2017 17:14:23
!< HDATE 11/22/2017 16:48:52
!< MDATE 11/23/2017 10:16:42
!< PARAMS
!< Lj = 11.0
!< Gap = 1.0
!< Pwid = 2000.0
!< Airgap = 6.0
!< Width = 10.0
!< Lj1 = 10.3
!< END PARAMS
# GHZ S MA R 50.90000
8.680000000000000 0.0251529419357 -1.475056441551 0.9996802241443 -79.78049555808 0.9996802241428 -79.78049555796 0.0251539496734 21.924675301573
!< P1 F=8.68 Eeff=(6.44843488 -2.9797e-5) Z0=(50.9086135 1.17022e-4) R=0.0 C=0.0 
!< P2 F=8.68 Eeff=(6.44843488 -2.9797e-5) Z0=(50.9086135 1.17022e-4) R=0.0 C=0.0 
8.680100000000001 0.0251522411223 -1.476601008013 0.9996802413597 -79.78146398865 0.9996802413597 -79.78146398865 0.0251532490033 21.924284160853
8.680200000000001 0.0251515390598 -1.478146294096 0.9996802586052 -79.78243249239 0.9996802586052 -79.78243249239 0.0251525470860 21.923893603999
8.680300000000001 0.0251508357418 -1.479692308903 0.9996802758813 -79.78340106960 0.9996802758813 -79.78340106960 0.0251518439136 21.923503633630
8.680400000000001 0.0251501311650 -1.481239055251 0.9996802931886 -79.78436972048 0.9996802931886 -79.78436972048 0.0251511394827 21.923114250570
8.680500000000000 0.0251494253258 -1.482786534841 0.9996803105268 -79.78533844523 0.9996803105268 -79.78533844523 0.0251504337898 21.922725456944
8.680600000000000 0.0251487182213 -1.484334749212 0.9996803278960 -79.78630724402 0.9996803278960 -79.78630724402 0.0251497268319 21.922337254410
8.680700000000000 0.0251480098495 -1.485883700328 0.9996803452965 -79.78727611698 0.9996803452965 -79.78727611698 0.0251490186070 21.921949643419
8.680800000000001 0.0251473002065 -1.487433389775 0.9996803627280 -79.78824506432 0.9996803627280 -79.78824506432 0.0251483091114 21.921562626378
8.680900000000001 0.0251465892898 -1.488983819439 0.9996803801909 -79.78921408621 0.9996803801909 -79.78921408621 0.0251475983424 21.921176204410
8.681000000000001 0.0251458770971 -1.490534990644 0.9996803976850 -79.79018318278 0.9996803976850 -79.79018318278 0.0251468862977 21.920790378769
8.681100000000001 0.0251451636252 -1.492086905479 0.9996804152106 -79.79115235420 0.9996804152106 -79.79115235420 0.0251461729743 21.920405150699
8.681200000000000 0.0251444488691 -1.493639566824 0.9996804327676 -79.79212160079 0.9996804327676 -79.79212160079 0.0251454583669 21.920020522819
8.681300000000000 0.0251437328282 -1.495192975145 0.9996804503562 -79.79309092257 0.9996804503562 -79.79309092257 0.0251447424751 21.919636495582
8.681400000000000 0.0251430154982 -1.496747133245 0.9996804679765 -79.79406031979 0.9996804679765 -79.79406031979 0.0251440252945 21.919253070668
8.681500000000000 0.0251422968751 -1.498302043005 0.9996804856285 -79.79502979269 0.9996804856285 -79.79502979269 0.0251433068213 21.918870250544
8.681600000000001 0.0251415769588 -1.499857704880 0.9996805033121 -79.79599934129 0.9996805033121 -79.79599934129 0.0251425870551 21.918488035252
8.681700000000001 0.0251408557431 -1.501414122733 0.9996805210277 -79.79696896593 0.9996805210277 -79.79696896593 0.0251418659900 21.918106427346
8.681800000000001 0.0251401332279 -1.502971296502 0.9996805387752 -79.79793866663 0.9996805387752 -79.79793866663 0.0251411436257 21.917725427361
8.681900000000001 0.0251394094069 -1.504529229688 0.9996805565546 -79.79890844377 0.9996805565546 -79.79890844377 0.0251404199560 21.917345038391
8.682000000000000 0.0251386842785 -1.506087924017 0.9996805743662 -79.79987829742 0.9996805743662 -79.79987829742 0.0251396949792 21.916965260638
8.682100000000000 0.0251379578403 -1.507647379917 0.9996805922097 -79.80084822774 0.9996805922097 -79.80084822774 0.0251389686930 21.916586096458
8.682200000000000 0.0251372300886 -1.509207600519 0.9996806100855 -79.80181823494 0.9996806100855 -79.80181823494 0.0251382410937 21.916207546608
8.682300000000000 0.0251365010201 -1.510768587621 0.9996806279937 -79.80278831922 0.9996806279937 -79.80278831922 0.0251375121780 21.915829613054
8.682400000000001 0.0251357706318 -1.512330342880 0.9996806459341 -79.80375848075 0.9996806459341 -79.80375848075 0.0251367819428 21.915452297381
8.682500000000001 0.0251350389202 -1.513892868519 0.9996806639070 -79.80472871974 0.9996806639070 -79.80472871974 0.0251360503847 21.915075601207
8.682600000000001 0.0251343058827 -1.515456166000 0.9996806819123 -79.80569903634 0.9996806819123 -79.80569903634 0.0251353175011 21.914699526038
8.682700000000001 0.0251335715163 -1.517020237536 0.9996806999503 -79.80666943073 0.9996806999503 -79.80666943073 0.0251345832889 21.914324072992
8.682800000000000 0.0251328358162 -1.518585085684 0.9996807180209 -79.80763990320 0.9996807180209 -79.80763990320 0.0251338477433 21.913949244672
8.682900000000000 0.0251320987825 -1.520150710488 0.9996807361242 -79.80861045372 0.9996807361242 -79.80861045372 0.0251331108647 21.913575041098
8.683000000000000 0.0251313604082 -1.521717116440 0.9996807542604 -79.80958108273 0.9996807542604 -79.80958108273 0.0251323726456 21.913201465400
8.683100000000001 0.0251306206918 -1.523284303848 0.9996807724294 -79.81055179030 0.9996807724294 -79.81055179030 0.0251316330850 21.912828518741
8.683200000000001 0.0251298796308 -1.524852274836 0.9996807906313 -79.81152257658 0.9996807906313 -79.81152257658 0.0251308921802 21.912456202157
8.683300000000001 0.0251291372203 -1.526421032207 0.9996808088664 -79.81249344187 0.9996808088664 -79.81249344187 0.0251301499261 21.912084517996
8.683400000000001 0.0251283934576 -1.527990577501 0.9996808271345 -79.81346438631 0.9996808271345 -79.81346438631 0.0251294063203 21.911713467692
8.683500000000000 0.0251276483400 -1.529560912576 0.9996808454358 -79.81443541008 0.9996808454358 -79.81443541008 0.0251286613598 21.911343052547
8.683600000000000 0.0251269018660 -1.531132038095 0.9996808637703 -79.81540651325 0.9996808637703 -79.81540651325 0.0251279150435 21.910973273591
8.683700000000000 0.0251261540273 -1.532703959238 0.9996808821382 -79.81637769632 0.9996808821382 -79.81637769632 0.0251271673628 21.910604134386
8.683800000000000 0.0251254048256 -1.534276675196 0.9996809005395 -79.81734895918 0.9996809005395 -79.81734895918 0.0251264183194 21.910235634471
8.683900000000001 0.0251246542546 -1.535850189130 0.9996809189742 -79.81832030221 0.9996809189742 -79.81832030221 0.0251256679073 21.909867777102
8.684000000000001 0.0251239023137 -1.537424502175 0.9996809374425 -79.81929172544 0.9996809374425 -79.81929172544 0.0251249161256 21.909500562322
8.684100000000001 0.0251231489958 -1.538999618522 0.9996809559446 -79.82026322929 0.9996809559446 -79.82026322929 0.0251241629672 21.909133993309
8.684200000000001 0.0251223943017 -1.540575537278 0.9996809744802 -79.82123481372 0.9996809744802 -79.82123481372 0.0251234084330 21.908768070577
8.684300000000000 0.0251216382242 -1.542152263143 0.9996809930498 -79.82220647915 0.9996809930498 -79.82220647915 0.0251226525158 21.908402796869
8.684400000000000 0.0251208807629 -1.543729796370 0.9996810116532 -79.82317822559 0.9996810116532 -79.82317822559 0.0251218952153 21.908038172699
8.684500000000000 0.0251201219124 -1.545308139948 0.9996810302904 -79.82415005337 0.9996810302904 -79.82415005337 0.0251211365259 21.907674200922
8.684600000000000 0.0251193616704 -1.546887295636 0.9996810489618 -79.82512196262 0.9996810489618 -79.82512196262 0.0251203764455 21.907310882394
8.684700000000001 0.0251186000337 -1.548467265324 0.9996810676673 -79.82609395354 0.9996810676673 -79.82609395354 0.0251196149706 21.906948218866
8.684800000000001 0.0251178369977 -1.550048051925 0.9996810864071 -79.82706602639 0.9996810864071 -79.82706602639 0.0251188520969 21.906586212357
8.684900000000001 0.0251170725603 -1.551629656445 0.9996811051811 -79.82803818129 0.9996811051811 -79.82803818129 0.0251180878222 21.906224864249
8.685000000000000 0.0251163067172 -1.553212081716 0.9996811239894 -79.82901041851 0.9996811239894 -79.82901041851 0.0251173221421 21.905864176444
8.685100000000000 0.0251155394654 -1.554795329316 0.9996811428322 -79.82998273821 0.9996811428322 -79.82998273821 0.0251165550539 21.905504150668
8.685200000000000 0.0251147708009 -1.556379401773 0.9996811617094 -79.83095514063 0.9996811617094 -79.83095514063 0.0251157865533 21.905144788868
8.685300000000000 0.0251140007227 -1.557964300239 0.9996811806214 -79.83192762583 0.9996811806214 -79.83192762583 0.0251150166393 21.904786091271
8.685400000000001 0.0251132292226 -1.559550029035 0.9996811995680 -79.83290019430 0.9996811995680 -79.83290019430 0.0251142453039 21.904428062084
8.685500000000001 0.0251124563006 -1.561136588590 0.9996812185495 -79.83387284603 0.9996812185495 -79.83387284603 0.0251134725470 21.904070701258
8.685600000000001 0.0251116819530 -1.562723980475 0.9996812375655 -79.83484558123 0.9996812375655 -79.83484558123 0.0251126983650 21.903714011205
8.685700000000001 0.0251109061757 -1.564312208143 0.9996812566167 -79.83581840017 0.9996812566167 -79.83581840017 0.0251119227535 21.903357993264
8.685800000000000 0.0251101289651 -1.565901273428 0.9996812757029 -79.83679130303 0.9996812757029 -79.83679130303 0.0251111457092 21.903002649211
8.685900000000000 0.0251093503170 -1.567491178639 0.9996812948241 -79.83776429008 0.9996812948241 -79.83776429008 0.0251103672279 21.902647981557
8.686000000000000 0.0251085702294 -1.569081925343 0.9996813139806 -79.83873736143 0.9996813139806 -79.83873736143 0.0251095873073 21.902293991118
8.686100000000000 0.0251077886975 -1.570673516205 0.9996813331723 -79.83971051736 0.9996813331723 -79.83971051736 0.0251088059430 21.901940680229
8.686200000000001 0.0251070057182 -1.572265953415 0.9996813523993 -79.84068375806 0.9996813523993 -79.84068375806 0.0251080231316 21.901588050484
8.686300000000001 0.0251062212870 -1.573859239417 0.9996813716619 -79.84165708377 0.9996813716618 -79.84165708377 0.0251072388688 21.901236104025
8.686400000000001 0.0251054354032 -1.575453375010 0.9996813909598 -79.84263049457 0.9996813909598 -79.84263049457 0.0251064531537 21.900884841433
8.686500000000001 0.0251046480583 -1.577048364644 0.9996814102934 -79.84360399093 0.9996814102934 -79.84360399093 0.0251056659781 21.900534266940
8.686600000000000 0.0251038592536 -1.578644208627 0.9996814296627 -79.84457757279 0.9996814296627 -79.84457757279 0.0251048773429 21.900184379507
8.686700000000000 0.0251030689831 -1.580240909789 0.9996814490677 -79.84555124049 0.9996814490677 -79.84555124049 0.0251040872425 21.899835182458
8.686800000000000 0.0251022772422 -1.581838470940 0.9996814685085 -79.84652499432 0.9996814685085 -79.84652499432 0.0251032956721 21.899486678265
8.686900000000001 0.0251014840297 -1.583436893748 0.9996814879855 -79.84749883433 0.9996814879855 -79.84749883433 0.0251025026304 21.899138866791
8.687000000000001 0.0251006893409 -1.585036180080 0.9996815074983 -79.84847276081 0.9996815074983 -79.84847276081 0.0251017081129 21.898791751183
8.687100000000001 0.0250998931709 -1.586636333485 0.9996815270474 -79.84944677404 0.9996815270474 -79.84944677404 0.0251009121146 21.898445333280
8.687200000000001 0.0250990955173 -1.588237354934 0.9996815466325 -79.85042087417 0.9996815466325 -79.85042087417 0.0251001146331 21.898099614880
8.687300000000000 0.0250982963765 -1.589839247105 0.9996815662539 -79.85139506140 0.9996815662539 -79.85139506140 0.0250993156649 21.897754597299
8.687400000000000 0.0250974957437 -1.591442012901 0.9996815859118 -79.85236933603 0.9996815859118 -79.85236933603 0.0250985152050 21.897410283024
8.687500000000000 0.0250966936168 -1.593045653137 0.9996816056060 -79.85334369816 0.9996816056060 -79.85334369816 0.0250977132516 21.897066673515
8.687600000000000 0.0250958899909 -1.594650171769 0.9996816253370 -79.85431814810 0.9996816253370 -79.85431814810 0.0250969097995 21.896723770274
8.687700000000001 0.0250950848617 -1.596255570459 0.9996816451045 -79.85529268609 0.9996816451045 -79.85529268609 0.0250961048446 21.896381576323
8.687800000000001 0.0250942782264 -1.597861851195 0.9996816649086 -79.85626731231 0.9996816649086 -79.85626731231 0.0250952983840 21.896040092949
8.687900000000001 0.0250934700812 -1.599469016810 0.9996816847497 -79.85724202697 0.9996816847497 -79.85724202697 0.0250944904139 21.895699321501
8.688000000000001 0.0250926604229 -1.601077068755 0.9996817046277 -79.85821683026 0.9996817046277 -79.85821683026 0.0250936809312 21.895359264141
8.688100000000000 0.0250918492455 -1.602686010647 0.9996817245426 -79.85919172253 0.9996817245426 -79.85919172253 0.0250928699299 21.895019923660
8.688200000000000 0.0250910365467 -1.604295844144 0.9996817444946 -79.86016670393 0.9996817444946 -79.86016670393 0.0250920574075 21.894681301262
8.688300000000000 0.0250902223218 -1.605906572129 0.9996817644838 -79.86114177472 0.9996817644838 -79.86114177472 0.0250912433595 21.894343399074
8.688400000000000 0.0250894065690 -1.607518195700 0.9996817845103 -79.86211693502 0.9996817845103 -79.86211693502 0.0250904277840 21.894006218342
8.688500000000001 0.0250885892827 -1.609130718234 0.9996818045741 -79.86309218515 0.9996818045741 -79.86309218515 0.0250896106754 21.893669761634
8.688600000000001 0.0250877704596 -1.610744141426 0.9996818246752 -79.86406752530 0.9996818246752 -79.86406752530 0.0250887920306 21.893334030931
8.688700000000001 0.0250869500940 -1.612358469300 0.9996818448140 -79.86504295582 0.9996818448140 -79.86504295582 0.0250879718437 21.892999028488
8.688800000000001 0.0250861281852 -1.613973702201 0.9996818649904 -79.86601847674 0.9996818649904 -79.86601847674 0.0250871501140 21.892664755090
8.688900000000000 0.0250853047262 -1.615589844255 0.9996818852045 -79.86699408849 0.9996818852045 -79.86699408849 0.0250863268345 21.892331214096
8.689000000000000 0.0250844797160 -1.617206896526 0.9996819054565 -79.86796979111 0.9996819054565 -79.86796979111 0.0250855020042 21.891998405856
8.689100000000000 0.0250836531478 -1.618824862373 0.9996819257464 -79.86894558499 0.9996819257464 -79.86894558499 0.0250846756164 21.891666334129
8.689200000000001 0.0250828250196 -1.620443743650 0.9996819460742 -79.86992147028 0.9996819460742 -79.86992147028 0.0250838476692 21.891334999668
8.689300000000001 0.0250819953271 -1.622063542683 0.9996819664401 -79.87089744721 0.9996819664401 -79.87089744721 0.0250830181580 21.891004404850
8.689400000000001 0.0250811640651 -1.623684262941 0.9996819868442 -79.87187351609 0.9996819868442 -79.87187351609 0.0250821870778 21.890674551856
8.689500000000001 0.0250803312314 -1.625305905637 0.9996820072866 -79.87284967705 0.9996820072866 -79.87284967705 0.0250813544263 21.890345442176
8.689600000000000 0.0250794968200 -1.626928474122 0.9996820277672 -79.87382593045 0.9996820277672 -79.87382593045 0.0250805201977 21.890017078906
8.689700000000000 0.0250786608297 -1.628551970151 0.9996820482866 -79.87480227636 0.9996820482866 -79.87480227636 0.0250796843905 21.889689461984
8.689800000000000 0.0250778232534 -1.630176397080 0.9996820688444 -79.87577871518 0.9996820688444 -79.87577871518 0.0250788469978 21.889362595524
8.689900000000000 0.0250769840886 -1.631801756763 0.9996820894408 -79.87675524708 0.9996820894408 -79.87675524708 0.0250780080171 21.889036480718
8.690000000000001 0.0250761433312 -1.633428051777 0.9996821100759 -79.87773187230 0.9996821100759 -79.87773187230 0.0250771674442 21.888711119654
8.690100000000001 0.0250753009764 -1.635055284836 0.9996821307499 -79.87870859110 0.9996821307499 -79.87870859110 0.0250763252745 21.888386514679
8.690200000000001 0.0250744570199 -1.636683459023 0.9996821514629 -79.87968540376 0.9996821514629 -79.87968540376 0.0250754815035 21.888062667655
8.690300000000001 0.0250736114584 -1.638312575830 0.9996821722148 -79.88066231046 0.9996821722148 -79.88066231046 0.0250746361280 21.887739580836
8.690400000000000 0.0250727642875 -1.639942638424 0.9996821930060 -79.88163931145 0.9996821930060 -79.88163931145 0.0250737891435 21.887417255845
8.690500000000000 0.0250719155046 -1.641573648501 0.9996822138363 -79.88261640691 0.9996822138363 -79.88261640691 0.0250729405474 21.887095694272
8.690600000000000 0.0250710651032 -1.643205609524 0.9996822347060 -79.88359359720 0.9996822347060 -79.88359359720 0.0250720903334 21.886774899455
8.690700000000001 0.0250702130794 -1.644838524127 0.9996822556150 -79.88457088256 0.9996822556150 -79.88457088256 0.0250712384974 21.886454873207
8.690800000000001 0.0250693594283 -1.646472395733 0.9996822765638 -79.88554826327 0.9996822765638 -79.88554826327 0.0250703850346 21.886135617560
8.690900000000001 0.0250685041494 -1.648107223989 0.9996822975520 -79.88652573937 0.9996822975520 -79.88652573937 0.0250695299445 21.885817133744
8.691000000000001 0.0250676472357 -1.649743013766 0.9996823185800 -79.88750331127 0.9996823185800 -79.88750331127 0.0250686732200 21.885499424443
8.691100000000000 0.0250667886824 -1.651379767723 0.9996823396478 -79.88848097924 0.9996823396478 -79.88848097924 0.0250678148565 21.885182492324
8.691200000000000 0.0250659284867 -1.653017487598 0.9996823607555 -79.88945874346 0.9996823607555 -79.88945874346 0.0250669548509 21.884866338986
8.691300000000000 0.0250650666434 -1.654656176620 0.9996823819032 -79.89043660424 0.9996823819032 -79.89043660424 0.0250660931983 21.884550966814
8.691400000000000 0.0250642031483 -1.656295837164 0.9996824030910 -79.89141456180 0.9996824030910 -79.89141456180 0.0250652298944 21.884236378148
8.691500000000001 0.0250633379988 -1.657936471554 0.9996824243191 -79.89239261632 0.9996824243191 -79.89239261632 0.0250643649366 21.883922573812
8.691600000000001 0.0250624711866 -1.659578083935 0.9996824455875 -79.89337076828 0.9996824455875 -79.89337076828 0.0250634983166 21.883609558462
8.691700000000001 0.0250616027115 -1.661220675013 0.9996824668963 -79.89434901769 0.9996824668963 -79.89434901769 0.0250626300341 21.883297332112
8.691800000000001 0.0250607325676 -1.662864248478 0.9996824882456 -79.89532736490 0.9996824882456 -79.89532736490 0.0250617600833 21.882985897464
8.691900000000000 0.0250598607499 -1.664508807138 0.9996825096355 -79.89630581020 0.9996825096355 -79.89630581020 0.0250608884592 21.882675257332
8.692000000000000 0.0250589872545 -1.666154353336 0.9996825310661 -79.89728435383 0.9996825310661 -79.89728435383 0.0250600151580 21.882365413648
8.692100000000000 0.0250581120779 -1.667800889709 0.9996825525376 -79.89826299598 0.9996825525376 -79.89826299598 0.0250591401759 21.882056367962
8.692200000000000 0.0250572352146 -1.669448419277 0.9996825740500 -79.89924173699 0.9996825740500 -79.89924173699 0.0250582635078 21.881748123087
8.692300000000001 0.0250563566589 -1.671096945593 0.9996825956035 -79.90022057719 0.9996825956035 -79.90022057719 0.0250573851476 21.881440681938
8.692400000000001 0.0250554764098 -1.672746469567 0.9996826171982 -79.90119951663 0.9996826171982 -79.90119951663 0.0250565050946 21.881134044925
8.692500000000001 0.0250545944601 -1.674396995095 0.9996826388340 -79.90217855574 0.9996826388340 -79.90217855574 0.0250556233415 21.880828215980
8.692600000000001 0.0250537108062 -1.676048524741 0.9996826605112 -79.90315769474 0.9996826605112 -79.90315769474 0.0250547398847 21.880523196660
8.692700000000000 0.0250528254443 -1.677701060843 0.9996826822298 -79.90413693384 0.9996826822298 -79.90413693384 0.0250538547204 21.880218988938
8.692800000000000 0.0250519383681 -1.679354607174 0.9996827039900 -79.90511627343 0.9996827039900 -79.90511627343 0.0250529678423 21.879915596036
8.692900000000000 0.0250510495736 -1.681009166222 0.9996827257918 -79.90609571372 0.9996827257918 -79.90609571372 0.0250520792464 21.879613019887
8.693000000000001 0.0250501590583 -1.682664739847 0.9996827476355 -79.90707525488 0.9996827476355 -79.90707525488 0.0250511889302 21.879311261676
8.693100000000001 0.0250492668156 -1.684321331821 0.9996827695210 -79.90805489729 0.9996827695210 -79.90805489729 0.0250502968871 21.879010324851
8.693200000000001 0.0250483728406 -1.685978945140 0.9996827914485 -79.90903464123 0.9996827914485 -79.90903464123 0.0250494031123 21.878710211723
8.693300000000001 0.0250474771312 -1.687637581208 0.9996828134180 -79.91001448683 0.9996828134180 -79.91001448683 0.0250485076035 21.878410923781
8.693400000000000 0.0250465796797 -1.689297244854 0.9996828354299 -79.91099443456 0.9996828354299 -79.91099443456 0.0250476103532 21.878112464300
8.693500000000000 0.0250456804827 -1.690957937729 0.9996828574838 -79.91197448458 0.9996828574838 -79.91197448458 0.0250467113580 21.877814835527
8.693600000000000 0.0250447795360 -1.692619663103 0.9996828795804 -79.91295463718 0.9996828795804 -79.91295463718 0.0250458106135 21.877518039161
8.693700000000000 0.0250438768356 -1.694282422996 0.9996829017193 -79.91393489258 0.9996829017193 -79.91393489258 0.0250449081157 21.877222077661
8.693800000000001 0.0250429723754 -1.695946221529 0.9996829239010 -79.91491525113 0.9996829239010 -79.91491525113 0.0250440038588 21.876926953585
8.693900000000001 0.0250420661507 -1.697611061154 0.9996829461253 -79.91589571312 0.9996829461253 -79.91589571312 0.0250430978378 21.876632669715
8.694000000000001 0.0250411581575 -1.699276944604 0.9996829683925 -79.91687627877 0.9996829683925 -79.91687627877 0.0250421900490 21.876339227882
8.694100000000001 0.0250402483899 -1.700943875574 0.9996829907027 -79.91785694845 0.9996829907027 -79.91785694845 0.0250412804862 21.876046630989
8.694200000000000 0.0250393368462 -1.702611855149 0.9996830130559 -79.91883772223 0.9996830130559 -79.91883772223 0.0250403691478 21.875754880123
8.694300000000000 0.0250384235178 -1.704280888502 0.9996830354523 -79.91981860064 0.9996830354523 -79.91981860064 0.0250394560253 21.875463979353
8.694400000000000 0.0250375084020 -1.705950976971 0.9996830578919 -79.92079958384 0.9996830578919 -79.92079958384 0.0250385411160 21.875173930596
8.694500000000000 0.0250365914937 -1.707622124637 0.9996830803751 -79.92178067211 0.9996830803751 -79.92178067211 0.0250376244146 21.874884735499
8.694600000000001 0.0250356727884 -1.709294333617 0.9996831029017 -79.92276186574 0.9996831029017 -79.92276186574 0.0250367059168 21.874596397084
8.694700000000001 0.0250347522802 -1.710967607581 0.9996831254720 -79.92374316506 0.9996831254720 -79.92374316506 0.0250357856166 21.874308918073
8.694800000000001 0.0250338299664 -1.712641948418 0.9996831480859 -79.92472457023 0.9996831480859 -79.92472457023 0.0250348635114 21.874022300033
8.694900000000001 0.0250329058389 -1.714317360796 0.9996831707437 -79.92570608173 0.9996831707437 -79.92570608173 0.0250339395931 21.873736546782
8.695000000000000 0.0250319798949 -1.715993846941 0.9996831934455 -79.92668769974 0.9996831934455 -79.92668769973 0.0250330138587 21.873451659751
8.695100000000000 0.0250310521291 -1.717671409931 0.9996832161915 -79.92766942454 0.9996832161915 -79.92766942454 0.0250320863031 21.873167641606
8.695200000000000 0.0250301225382 -1.719350051710 0.9996832389815 -79.92865125636 0.9996832389815 -79.92865125635 0.0250311569229 21.872884494463
8.695300000000001 0.0250291911136 -1.721029777630 0.9996832618159 -79.92963319567 0.9996832618159 -79.92963319567 0.0250302257096 21.872602221988
8.695400000000001 0.0250282578539 -1.722710588675 0.9996832846947 -79.93061524258 0.9996832846947 -79.93061524258 0.0250292926617 21.872320825408
8.695500000000001 0.0250273227501 -1.724392489766 0.9996833076179 -79.93159739761 0.9996833076179 -79.93159739761 0.0250283577704 21.872040309247
8.695600000000001 0.0250263858023 -1.726075481958 0.9996833305859 -79.93257966076 0.9996833305859 -79.93257966076 0.0250274210355 21.871760673139
8.695700000000000 0.0250254470017 -1.727759570422 0.9996833535988 -79.93356203254 0.9996833535988 -79.93356203254 0.0250264824484 21.871481921340
8.695800000000000 0.0250245063453 -1.729444756410 0.9996833766565 -79.93454451313 0.9996833766565 -79.93454451313 0.0250255420060 21.871204056171
8.695900000000000 0.0250235638263 -1.731131044387 0.9996833997591 -79.93552710292 0.9996833997591 -79.93552710292 0.0250245997017 21.870927080560
8.696000000000000 0.0250226194405 -1.732818437363 0.9996834229069 -79.93650980218 0.9996834229069 -79.93650980218 0.0250236555310 21.870650996541
8.696100000000001 0.0250216731832 -1.734506937903 0.9996834461000 -79.93749261117 0.9996834461000 -79.93749261117 0.0250227094895 21.870375806634
8.696200000000001 0.0250207250477 -1.736196549756 0.9996834693383 -79.93847553029 0.9996834693383 -79.93847553029 0.0250217615704 21.870101514540
8.696300000000001 0.0250197750310 -1.737887275764 0.9996834926223 -79.93945855972 0.9996834926223 -79.93945855972 0.0250208117706 21.869828121170
8.696400000000001 0.0250188231265 -1.739579119029 0.9996835159517 -79.94044169984 0.9996835159517 -79.94044169984 0.0250198600835 21.869555630605
8.696500000000000 0.0250178693311 -1.741272082626 0.9996835393270 -79.94142495084 0.9996835393270 -79.94142495084 0.0250189065062 21.869284043475
8.696600000000000 0.0250169136362 -1.742966170840 0.9996835627481 -79.94240831323 0.9996835627481 -79.94240831323 0.0250179510298 21.869013364947
8.696700000000000 0.0250159560379 -1.744661386094 0.9996835862150 -79.94339178722 0.9996835862150 -79.94339178722 0.0250169936508 21.868743596837
8.696800000000001 0.0250149965332 -1.746357731346 0.9996836097282 -79.94437537300 0.9996836097282 -79.94437537300 0.0250160343658 21.868474740142
8.696900000000001 0.0250140351143 -1.748055210483 0.9996836332875 -79.94535907104 0.9996836332875 -79.94535907104 0.0250150731672 21.868206799417
8.697000000000001 0.0250130717767 -1.749753826144 0.9996836568931 -79.94634288158 0.9996836568931 -79.94634288158 0.0250141100506 21.867939777038
8.697100000000001 0.0250121065152 -1.751453582583 0.9996836805453 -79.94732680496 0.9996836805453 -79.94732680496 0.0250131450105 21.867673674852
8.697200000000000 0.0250111393237 -1.753154482358 0.9996837042439 -79.94831084150 0.9996837042439 -79.94831084150 0.0250121780412 21.867408496810
8.697300000000000 0.0250101701984 -1.754856528614 0.9996837279892 -79.94929499145 0.9996837279892 -79.94929499145 0.0250112091386 21.867144244502
8.697400000000000 0.0250091991323 -1.756559725734 0.9996837517815 -79.95027925522 0.9996837517815 -79.95027925522 0.0250102382957 21.866880921180
8.697500000000000 0.0250082261213 -1.758264076238 0.9996837756207 -79.95126363304 0.9996837756207 -79.95126363304 0.0250092655085 21.866618529059
8.697600000000001 0.0250072511601 -1.759969582641 0.9996837995068 -79.95224812524 0.9996837995068 -79.95224812524 0.0250082907718 21.866357071634
8.697700000000001 0.0250062742417 -1.761676250194 0.9996838234402 -79.95323273221 0.9996838234402 -79.95323273221 0.0250073140785 21.866096551346
8.697800000000001 0.0250052953623 -1.763384081086 0.9996838474210 -79.95421745419 0.9996838474210 -79.95421745419 0.0250063354248 21.865836970582
8.697900000000001 0.0250043145164 -1.765093078330 0.9996838714491 -79.95520229150 0.9996838714491 -79.95520229150 0.0250053548051 21.865578332500
8.698000000000000 0.0250033316971 -1.766803246892 0.9996838955250 -79.95618724455 0.9996838955250 -79.95618724455 0.0250043722126 21.865320639824
8.698100000000000 0.0250023468989 -1.768514589582 0.9996839196485 -79.95717231365 0.9996839196485 -79.95717231365 0.0250033876418 21.865063895860
8.698200000000000 0.0250013601168 -1.770227109561 0.9996839438198 -79.95815749910 0.9996839438198 -79.95815749910 0.0250024010879 21.864808103107
8.698300000000000 0.0250003713460 -1.771940810428 0.9996839680392 -79.95914280120 0.9996839680392 -79.95914280120 0.0250014125457 21.864553263690
8.698400000000001 0.0249993805809 -1.773655694574 0.9996839923064 -79.96012822026 0.9996839923064 -79.96012822026 0.0250004220099 21.864299381355
8.698500000000001 0.0249983878168 -1.775371766067 0.9996840166220 -79.96111375656 0.9996840166220 -79.96111375656 0.0249994294757 21.864046457569
8.698600000000001 0.0249973930456 -1.777089029655 0.9996840409860 -79.96209941059 0.9996840409860 -79.96209941059 0.0249984349350 21.863794496438
8.698700000000001 0.0249963962624 -1.778807487937 0.9996840653984 -79.96308518262 0.9996840653984 -79.96308518262 0.0249974383830 21.863543500977
8.698800000000000 0.0249953974618 -1.780527144201 0.9996840898594 -79.96407107298 0.9996840898594 -79.96407107298 0.0249964398142 21.863293474018
8.698900000000000 0.0249943966394 -1.782248002116 0.9996841143692 -79.96505708193 0.9996841143692 -79.96505708193 0.0249954392241 21.863044417081
8.699000000000000 0.0249933937877 -1.783970065405 0.9996841389278 -79.96604320990 0.9996841389278 -79.96604320990 0.0249944366054 21.862796334751
8.699100000000001 0.0249923889020 -1.785693337627 0.9996841635355 -79.96702945717 0.9996841635356 -79.96702945717 0.0249934319533 21.862549228687
8.699200000000001 0.0249913819754 -1.787417822543 0.9996841881923 -79.96801582417 0.9996841881923 -79.96801582417 0.0249924252610 21.862303103107
8.699300000000001 0.0249903730033 -1.789143523368 0.9996842128984 -79.96900231114 0.9996842128984 -79.96900231114 0.0249914165238 21.862057959955
8.699400000000001 0.0249893619812 -1.790870442883 0.9996842376538 -79.96998891835 0.9996842376538 -79.96998891835 0.0249904057372 21.861813801706
8.699500000000000 0.0249883488993 -1.792598587268 0.9996842624589 -79.97097564639 0.9996842624589 -79.97097564639 0.0249893928915 21.861570632954
8.699600000000000 0.0249873337554 -1.794327957708 0.9996842873137 -79.97196249539 0.9996842873137 -79.97196249539 0.0249883779843 21.861328455319
8.699700000000000 0.0249863165413 -1.796058559430 0.9996843122182 -79.97294946582 0.9996843122182 -79.97294946582 0.0249873610076 21.861087272667
8.699800000000000 0.0249852972540 -1.797790393972 0.9996843371726 -79.97393655786 0.9996843371726 -79.97393655786 0.0249863419584 21.860847087057
8.699900000000001 0.0249842758832 -1.799523468206 0.9996843621772 -79.97492377213 0.9996843621772 -79.97492377213 0.0249853208263 21.860607902956
8.700000000000001 0.0249832524290 -1.801257782101 0.9996843872319 -79.97591110861 0.9996843872319 -79.97591110861 0.0249842976115 21.860369720847