! Sonnet Data File
! From: emgraph Version : 16.52
! From Project: 171117_Xmon_fullysym
! Data is De-embedded 
! Data File Written: 11/26/2017 21:44:48
!< HDATE 11/26/2017 17:24:49
!< MDATE 11/26/2017 17:24:49
!< PARAMS
!< Lj = 11.0
!< Gap = 1.0
!< Pwid = 2000.0
!< Airgap = 6.0
!< Width = 10.0
!< Lj1 = 11.6
!< END PARAMS
# GHZ S MA R 50.90000
8.600000000000001 0.0264356967313 0.0468100686744 0.9996471360727 -78.96381697055 0.9996471360726 -78.96381697083 0.0264366460270 22.035741219970
!< P1 F=8.6 Eeff=(6.44845572 -2.9799e-5) Z0=(50.9087207 1.17006e-4) R=0.0 C=0.0 
!< P2 F=8.6 Eeff=(6.44845572 -2.9799e-5) Z0=(50.9087207 1.17006e-4) R=0.0 C=0.0 
8.600200000000001 0.0264340646727 0.0437807006403 0.9996471794149 -78.96576697304 0.9996471794149 -78.96576697304 0.0264350140066 22.034870222121
8.600400000000000 0.0264324350838 0.0407521384383 0.9996472226585 -78.96771683391 0.9996472226585 -78.96771683391 0.0264333844377 22.033998684224
8.600600000000000 0.0264308079156 0.0377243953553 0.9996472658333 -78.96966655386 0.9996472658333 -78.96966655386 0.0264317572902 22.033126616920
8.600800000000001 0.0264291831485 0.0346974635134 0.9996473089399 -78.97161613403 0.9996473089399 -78.97161613403 0.0264301325444 22.032254026422
8.601000000000001 0.0264275607593 0.0316713327106 0.9996473519790 -78.97356557576 0.9996473519790 -78.97356557576 0.0264285101773 22.031380919613
8.601200000000000 0.0264259407272 0.0286459942033 0.9996473949510 -78.97551488028 0.9996473949510 -78.97551488028 0.0264268901679 22.030507303011
8.601400000000000 0.0264243230283 0.0256214381380 0.9996474378566 -78.97746404897 0.9996474378566 -78.97746404897 0.0264252724925 22.029633184274
8.601600000000001 0.0264227076415 0.0225976549353 0.9996474806964 -78.97941308305 0.9996474806964 -78.97941308305 0.0264236571298 22.028758569522
8.601800000000001 0.0264210945452 0.0195746355395 0.9996475234711 -78.98136198379 0.9996475234711 -78.98136198379 0.0264220440582 22.027883465395
8.602000000000000 0.0264194837157 0.0165523699242 0.9996475661813 -78.98331075257 0.9996475661813 -78.98331075257 0.0264204332540 22.027007879548
8.602200000000000 0.0264178751344 0.0135308503333 0.9996476088273 -78.98525939046 0.9996476088273 -78.98525939046 0.0264188246988 22.026131817588
8.602400000000001 0.0264162687765 0.0105100657454 0.9996476514101 -78.98720789891 0.9996476514101 -78.98720789891 0.0264172183677 22.025255287197
8.602600000000001 0.0264146646235 0.0074900084791 0.9996476939300 -78.98915627899 0.9996476939300 -78.98915627899 0.0264156142420 22.024378294049
8.602800000000000 0.0264130626522 0.0044706686024 0.9996477363877 -78.99110453206 0.9996477363877 -78.99110453206 0.0264140122988 22.023500845485
8.603000000000000 0.0264114628413 0.0014520369210 0.9996477787838 -78.99305265935 0.9996477787838 -78.99305265935 0.0264124125165 22.022622947961
8.603200000000001 0.0264098651700 -1.565895419e-3 0.9996478211188 -78.99500066208 0.9996478211188 -78.99500066208 0.0264108148746 22.021744608176
8.603400000000001 0.0264082696171 -4.583137431e-3 0.9996478633932 -78.99694854147 0.9996478633932 -78.99694854147 0.0264092193517 22.020865832687
8.603600000000000 0.0264066761612 -7.599698495e-3 0.9996479056078 -78.99889629878 0.9996479056078 -78.99889629878 0.0264076259264 22.019986627964
8.603800000000000 0.0264050847810 -0.010615587828 0.9996479477631 -79.00084393524 0.9996479477631 -79.00084393524 0.0264060345774 22.019107000808
8.604000000000001 0.0264034954561 -0.013630813826 0.9996479898596 -79.00279145204 0.9996479898596 -79.00279145204 0.0264044452845 22.018226957676
8.604200000000001 0.0264019081674 -0.016645385058 0.9996480318978 -79.00473885029 0.9996480318978 -79.00473885029 0.0264028580285 22.017346504249
8.604400000000000 0.0264003228901 -0.019659312024 0.9996480738785 -79.00668613143 0.9996480738785 -79.00668613143 0.0264012727844 22.016465648739
8.604600000000001 0.0263987396083 -0.022672601637 0.9996481158020 -79.00863329640 0.9996481158020 -79.00863329640 0.0263996895364 22.015584395746
8.604800000000001 0.0263971582966 -0.025685264958 0.9996481576691 -79.01058034666 0.9996481576691 -79.01058034666 0.0263981082592 22.014702753354
8.605000000000000 0.0263955789392 -0.028697308586 0.9996481994802 -79.01252728313 0.9996481994802 -79.01252728313 0.0263965289369 22.013820726554
8.605200000000000 0.0263940015112 -0.031708743338 0.9996482412358 -79.01447410728 0.9996482412358 -79.01447410728 0.0263949515447 22.012938323270
8.605400000000001 0.0263924259968 -0.034719576126 0.9996482829366 -79.01642082000 0.9996482829366 -79.01642082000 0.0263933760667 22.012055548272
8.605600000000001 0.0263908523708 -0.037729818026 0.9996483245833 -79.01836742279 0.9996483245833 -79.01836742279 0.0263918024778 22.011172409492
8.605800000000000 0.0263892806179 -0.040739475079 0.9996483661760 -79.02031391650 0.9996483661760 -79.02031391650 0.0263902307626 22.010288912029
8.606000000000000 0.0263877107136 -0.043748558557 0.9996484077156 -79.02226030260 0.9996484077156 -79.02226030260 0.0263886608965 22.009405063389
8.606200000000001 0.0263861426410 -0.046757075403 0.9996484492026 -79.02420658204 0.9996484492026 -79.02420658204 0.0263870928629 22.008520868919
8.606400000000001 0.0263845763788 -0.049765034925 0.9996484906374 -79.02615275607 0.9996484906374 -79.02615275607 0.0263855266403 22.007636335459
8.606600000000000 0.0263830119074 -0.052772445723 0.9996485320207 -79.02809882584 0.9996485320207 -79.02809882584 0.0263839622091 22.006751469014
8.606800000000000 0.0263814492062 -0.055779316584 0.9996485733529 -79.03004479254 0.9996485733529 -79.03004479254 0.0263823995487 22.005866276450
8.607000000000001 0.0263798882572 -0.058785655465 0.9996486146346 -79.03199065721 0.9996486146346 -79.03199065721 0.0263808386412 22.004980763186
8.607200000000001 0.0263783290386 -0.061791471709 0.9996486558664 -79.03393642114 0.9996486558664 -79.03393642114 0.0263792794646 22.004094936403
8.607400000000000 0.0263767715329 -0.064796773124 0.9996486970487 -79.03588208533 0.9996486970487 -79.03588208533 0.0263777220016 22.003208801371
8.607600000000000 0.0263752157186 -0.067801568952 0.9996487381821 -79.03782765104 0.9996487381821 -79.03782765104 0.0263761662306 22.002322365079
8.607800000000001 0.0263736615782 -0.070805866847 0.9996487792672 -79.03977311928 0.9996487792672 -79.03977311928 0.0263746121341 22.001435633110
8.608000000000001 0.0263721090898 -0.073809676399 0.9996488203044 -79.04171849133 0.9996488203044 -79.04171849133 0.0263730596903 22.000548612430
8.608200000000000 0.0263705582368 -0.076813004923 0.9996488612943 -79.04366376817 0.9996488612943 -79.04366376817 0.0263715088825 21.999661308247
8.608400000000001 0.0263690089980 -0.079815861431 0.9996489022374 -79.04560895102 0.9996489022374 -79.04560895102 0.0263699596894 21.998773727606
8.608600000000001 0.0263674613551 -0.082818254262 0.9996489431342 -79.04755404094 0.9996489431342 -79.04755404094 0.0263684120928 21.997885875986
8.608800000000000 0.0263659152883 -0.085820191792 0.9996489839853 -79.04949903909 0.9996489839853 -79.04949903909 0.0263668660731 21.996997760081
8.609000000000000 0.0263643707785 -0.088821682485 0.9996490247910 -79.05144394659 0.9996490247910 -79.05144394659 0.0263653216108 21.996109385883
8.609200000000001 0.0263628278076 -0.091822734354 0.9996490655521 -79.05338876448 0.9996490655521 -79.05338876448 0.0263637786882 21.995220759039
8.609400000000001 0.0263612863552 -0.094823356322 0.9996491062690 -79.05533349396 0.9996491062690 -79.05533349396 0.0263622372846 21.994331886288
8.609600000000000 0.0263597464053 -0.097823555246 0.9996491469421 -79.05727813595 0.9996491469421 -79.05727813595 0.0263606973841 21.993442772851
8.609800000000000 0.0263582079347 -0.100823341527 0.9996491875721 -79.05922269180 0.9996491875721 -79.05922269180 0.0263591589636 21.992553426029
8.610000000000001 0.0263566709283 -0.103822721639 0.9996492281593 -79.06116716241 0.9996492281593 -79.06116716241 0.0263576220078 21.991663850827
8.610200000000001 0.0263551353663 -0.106821704477 0.9996492687044 -79.06311154890 0.9996492687044 -79.06311154890 0.0263560864971 21.990774053349
8.610400000000000 0.0263536012299 -0.109820298118 0.9996493092077 -79.06505585239 0.9996493092077 -79.06505585239 0.0263545524125 21.989884040075
8.610600000000000 0.0263520684995 -0.112818511360 0.9996493496700 -79.06700007402 0.9996493496700 -79.06700007402 0.0263530197346 21.988993817020
8.610800000000001 0.0263505371582 -0.115816351620 0.9996493900915 -79.06894421476 0.9996493900915 -79.06894421476 0.0263514884463 21.988103389860
8.611000000000001 0.0263490071863 -0.118813827449 0.9996494304728 -79.07088827577 0.9996494304728 -79.07088827577 0.0263499585281 21.987212764871
8.611200000000000 0.0263474785662 -0.121810946951 0.9996494708145 -79.07283225806 0.9996494708145 -79.07283225806 0.0263484299622 21.986321947696
8.611400000000000 0.0263459512788 -0.124807718233 0.9996495111170 -79.07477616276 0.9996495111170 -79.07477616276 0.0263469027297 21.985430944636
8.611600000000001 0.0263444253070 -0.127804148870 0.9996495513807 -79.07671999086 0.9996495513807 -79.07671999086 0.0263453768133 21.984539761415
8.611800000000001 0.0263429006318 -0.130800247689 0.9996495916063 -79.07866374346 0.9996495916063 -79.07866374346 0.0263438521942 21.983648403804
8.612000000000000 0.0263413772345 -0.133796022422 0.9996496317941 -79.08060742165 0.9996496317941 -79.08060742165 0.0263423288535 21.982756878396
8.612200000000001 0.0263398550964 -0.136791481432 0.9996496719447 -79.08255102652 0.9996496719447 -79.08255102652 0.0263408067727 21.981865191117
8.612400000000001 0.0263383342018 -0.139786632321 0.9996497120586 -79.08449455900 0.9996497120586 -79.08449455900 0.0263392859359 21.980973346752
8.612600000000000 0.0263368145310 -0.142781483103 0.9996497521363 -79.08643802021 0.9996497521363 -79.08643802021 0.0263377663236 21.980081352082
8.612800000000000 0.0263352960653 -0.145776042427 0.9996497921782 -79.08838141126 0.9996497921782 -79.08838141126 0.0263362479169 21.979189213164
8.613000000000001 0.0263337787891 -0.148770317230 0.9996498321847 -79.09032473305 0.9996498321847 -79.09032473305 0.0263347307003 21.978296935037
8.613200000000001 0.0263322626823 -0.151764316444 0.9996498721566 -79.09226798676 0.9996498721566 -79.09226798676 0.0263332146537 21.977404524410
8.613400000000000 0.0263307477277 -0.154758047716 0.9996499120941 -79.09421117337 0.9996499120941 -79.09421117337 0.0263316997599 21.976511986794
8.613600000000000 0.0263292339079 -0.157751518725 0.9996499519977 -79.09615429392 0.9996499519977 -79.09615429392 0.0263301860015 21.975619328035
8.613800000000001 0.0263277212052 -0.160744737280 0.9996499918679 -79.09809734942 0.9996499918679 -79.09809734942 0.0263286733608 21.974726554091
8.614000000000001 0.0263262096018 -0.163737711645 0.9996500317053 -79.10004034092 0.9996500317053 -79.10004034092 0.0263271618199 21.973833670478
8.614200000000000 0.0263246990798 -0.166730449768 0.9996500715103 -79.10198326946 0.9996500715103 -79.10198326946 0.0263256513611 21.972940683194
8.614400000000000 0.0263231896206 -0.169722959629 0.9996501112833 -79.10392613611 0.9996501112833 -79.10392613611 0.0263241419657 21.972047598640
8.614600000000001 0.0263216812081 -0.172715248821 0.9996501510248 -79.10586894183 0.9996501510248 -79.10586894183 0.0263226336175 21.971154421917
8.614800000000001 0.0263201738251 -0.175707324877 0.9996501907354 -79.10781168761 0.9996501907354 -79.10781168761 0.0263211262995 21.970261158669
8.615000000000000 0.0263186674517 -0.178699196696 0.9996502304154 -79.10975437461 0.9996502304154 -79.10975437461 0.0263196199916 21.969367815698
8.615200000000000 0.0263171620739 -0.181690870577 0.9996502700653 -79.11169700365 0.9996502700653 -79.11169700365 0.0263181146798 21.968474397486
8.615400000000001 0.0263156576720 -0.184682355494 0.9996503096856 -79.11363957586 0.9996503096856 -79.11363957586 0.0263166103446 21.967580910578
8.615600000000001 0.0263141542290 -0.187673659054 0.9996503492769 -79.11558209226 0.9996503492769 -79.11558209226 0.0263151069689 21.966687360662
8.615800000000000 0.0263126517277 -0.190664788842 0.9996503888394 -79.11752455383 0.9996503888394 -79.11752455383 0.0263136045355 21.965793753484
8.616000000000000 0.0263111501515 -0.193655752428 0.9996504283737 -79.11946696155 0.9996504283737 -79.11946696155 0.0263121030276 21.964900094668
8.616200000000001 0.0263096494816 -0.196646558279 0.9996504678803 -79.12140931650 0.9996504678803 -79.12140931650 0.0263106024268 21.964006390316
8.616400000000001 0.0263081497031 -0.199637213096 0.9996505073596 -79.12335161956 0.9996505073596 -79.12335161956 0.0263091027179 21.963112645372
8.616600000000000 0.0263066507963 -0.202627725797 0.9996505468121 -79.12529387188 0.9996505468121 -79.12529387188 0.0263076038813 21.962218866740
8.616800000000001 0.0263051527462 -0.205618103158 0.9996505862382 -79.12723607432 0.9996505862382 -79.12723607432 0.0263061059020 21.961325059049
8.617000000000001 0.0263036555352 -0.208608353162 0.9996506256383 -79.12917822792 0.9996506256383 -79.12917822792 0.0263046087623 21.960431228492
8.617200000000000 0.0263021591454 -0.211598483946 0.9996506650131 -79.13112033372 0.9996506650131 -79.13112033372 0.0263031124444 21.959537380773
8.617400000000000 0.0263006635607 -0.214588502923 0.9996507043629 -79.13306239265 0.9996507043629 -79.13306239265 0.0263016169322 21.958643521347
8.617600000000001 0.0262991687637 -0.217578417362 0.9996507436880 -79.13500440574 0.9996507436880 -79.13500440574 0.0263001222083 21.957749656601
8.617800000000001 0.0262976747376 -0.220568235597 0.9996507829890 -79.13694637395 0.9996507829890 -79.13694637395 0.0262986282558 21.956855791588
8.618000000000000 0.0262961814656 -0.223557965000 0.9996508222665 -79.13888829828 0.9996508222665 -79.13888829828 0.0262971350580 21.955961932158
8.618200000000000 0.0262946889314 -0.226547612680 0.9996508615206 -79.14083017965 0.9996508615206 -79.14083017965 0.0262956425987 21.955068083941
8.618400000000001 0.0262931971165 -0.229537187414 0.9996509007521 -79.14277201916 0.9996509007521 -79.14277201916 0.0262941508592 21.954174253047
8.618600000000001 0.0262917060053 -0.232526696441 0.9996509399613 -79.14471381773 0.9996509399613 -79.14471381773 0.0262926598240 21.953280444680
8.618800000000000 0.0262902155813 -0.235516146851 0.9996509791486 -79.14665557629 0.9996509791486 -79.14665557629 0.0262911694766 21.952386664563
8.619000000000000 0.0262887258273 -0.238505546659 0.9996510183144 -79.14859729587 0.9996510183144 -79.14859729587 0.0262896797997 21.951492918607
8.619200000000001 0.0262872367271 -0.241494903377 0.9996510574593 -79.15053897739 0.9996510574593 -79.15053897739 0.0262881907773 21.950599212056
8.619400000000001 0.0262857482640 -0.244484224450 0.9996510965837 -79.15248062185 0.9996510965837 -79.15248062185 0.0262867023925 21.949705550748
8.619600000000000 0.0262842604212 -0.247473517684 0.9996511356880 -79.15442223021 0.9996511356880 -79.15442223021 0.0262852146286 21.948811940385
8.619800000000000 0.0262827731815 -0.250462791105 0.9996511747727 -79.15636380349 0.9996511747727 -79.15636380349 0.0262837274683 21.947918386719
8.620000000000001 0.0262812865278 -0.253452052130 0.9996512138382 -79.15830534266 0.9996512138381 -79.15830534266 0.0262822408947 21.947024895840
8.620200000000001 0.0262798004462 -0.256441307662 0.9996512528849 -79.16024684856 0.9996512528850 -79.16024684856 0.0262807548936 21.946131472048
8.620400000000000 0.0262783149183 -0.259430565400 0.9996512919133 -79.16218832224 0.9996512919133 -79.16218832224 0.0262792694469 21.945238122184
8.620600000000001 0.0262768299274 -0.262419833684 0.9996513309238 -79.16412976468 0.9996513309238 -79.16412976468 0.0262777845378 21.944344851567
8.620800000000001 0.0262753454582 -0.265409119101 0.9996513699168 -79.16607117678 0.9996513699168 -79.16607117678 0.0262763001510 21.943451665647
8.621000000000000 0.0262738614936 -0.268398429830 0.9996514088929 -79.16801255953 0.9996514088929 -79.16801255953 0.0262748162694 21.942558570156
8.621200000000000 0.0262723780176 -0.271387773159 0.9996514478524 -79.16995391386 0.9996514478524 -79.16995391386 0.0262733328768 21.941665570549
8.621400000000001 0.0262708950134 -0.274377156534 0.9996514867956 -79.17189524075 0.9996514867956 -79.17189524075 0.0262718499568 21.940772672893
8.621600000000001 0.0262694124646 -0.277366588119 0.9996515257233 -79.17383654117 0.9996515257233 -79.17383654117 0.0262703674926 21.939879882376
8.621800000000000 0.0262679303548 -0.280356074915 0.9996515646357 -79.17577781605 0.9996515646357 -79.17577781605 0.0262688854680 21.938987205090
8.622000000000000 0.0262664486687 -0.283345624209 0.9996516035332 -79.17771906631 0.9996516035332 -79.17771906631 0.0262674038677 21.938094646017
8.622200000000001 0.0262649673892 -0.286335243885 0.9996516424163 -79.17966029293 0.9996516424163 -79.17966029293 0.0262659226746 21.937202211236
8.622400000000001 0.0262634865006 -0.289324941072 0.9996516812854 -79.18160149683 0.9996516812854 -79.18160149683 0.0262644418731 21.936309906153
8.622600000000000 0.0262620059858 -0.292314724203 0.9996517201410 -79.18354267901 0.9996517201410 -79.18354267901 0.0262629614458 21.935417736375
8.622800000000000 0.0262605258299 -0.295304599476 0.9996517589834 -79.18548384034 0.9996517589834 -79.18548384034 0.0262614813780 21.934525707671
8.623000000000001 0.0262590460145 -0.298294575939 0.9996517978132 -79.18742498188 0.9996517978132 -79.18742498188 0.0262600016513 21.933633825854
8.623200000000001 0.0262575665269 -0.301284659005 0.9996518366306 -79.18936610438 0.9996518366306 -79.18936610438 0.0262585222531 21.932742095815
8.623400000000000 0.0262560873477 -0.304274858164 0.9996518754363 -79.19130720898 0.9996518754363 -79.19130720898 0.0262570431637 21.931850523989
8.623600000000000 0.0262546084631 -0.307265179693 0.9996519142305 -79.19324829647 0.9996519142305 -79.19324829647 0.0262555643695 21.930959115113
8.623800000000001 0.0262531298549 -0.310255632087 0.9996519530138 -79.19518936791 0.9996519530138 -79.19518936791 0.0262540858523 21.930067875640
8.624000000000001 0.0262516515092 -0.313246221638 0.9996519917865 -79.19713042413 0.9996519917865 -79.19713042413 0.0262526075983 21.929176810558
8.624200000000000 0.0262501734084 -0.316236956540 0.9996520305490 -79.19907146613 0.9996520305490 -79.19907146613 0.0262511295896 21.928285926005
8.624400000000001 0.0262486955370 -0.319227844173 0.9996520693018 -79.20101249484 0.9996520693018 -79.20101249484 0.0262496518111 21.927395227273
8.624600000000001 0.0262472178786 -0.322218892369 0.9996521080454 -79.20295351120 0.9996521080454 -79.20295351120 0.0262481742460 21.926504720054
8.624800000000000 0.0262457404192 -0.325210107451 0.9996521467800 -79.20489451603 0.9996521467800 -79.20489451603 0.0262466968805 21.925614409315
8.625000000000000 0.0262442631396 -0.328201498315 0.9996521855063 -79.20683551046 0.9996521855063 -79.20683551046 0.0262452196954 21.924724302001
8.625200000000001 0.0262427860272 -0.331193071139 0.9996522242245 -79.20877649520 0.9996522242245 -79.20877649520 0.0262437426781 21.923834402077
8.625400000000001 0.0262413090640 -0.334184833758 0.9996522629350 -79.21071747132 0.9996522629350 -79.21071747132 0.0262422658106 21.922944716570
8.625600000000000 0.0262398322334 -0.337176794655 0.9996523016384 -79.21265843979 0.9996523016384 -79.21265843979 0.0262407890763 21.922055250756
8.625800000000000 0.0262383555213 -0.340168960315 0.9996523403350 -79.21459940143 0.9996523403350 -79.21459940143 0.0262393124610 21.921166009686
8.626000000000001 0.0262368789108 -0.343161338458 0.9996523790253 -79.21654035722 0.9996523790253 -79.21654035722 0.0262378359479 21.920276999456
8.626200000000001 0.0262354023865 -0.346153936188 0.9996524177096 -79.21848130806 0.9996524177096 -79.21848130806 0.0262363595216 21.919388225677
8.626400000000000 0.0262339259330 -0.349146761071 0.9996524563884 -79.22042225485 0.9996524563884 -79.22042225485 0.0262348831667 21.918499693555
8.626600000000000 0.0262324495326 -0.352139821399 0.9996524950621 -79.22236319862 0.9996524950621 -79.22236319862 0.0262334068655 21.917611409343
8.626800000000001 0.0262309731709 -0.355133124040 0.9996525337312 -79.22430414022 0.9996525337312 -79.22430414022 0.0262319306035 21.916723378162
8.627000000000001 0.0262294968332 -0.358126675594 0.9996525723960 -79.22624508048 0.9996525723960 -79.22624508048 0.0262304543662 21.915835605358
8.627200000000000 0.0262280205009 -0.361120485071 0.9996526110569 -79.22818602053 0.9996526110569 -79.22818602053 0.0262289781348 21.914948097601
8.627400000000000 0.0262265441603 -0.364114559035 0.9996526497144 -79.23012696113 0.9996526497144 -79.23012696113 0.0262275018957 21.914060859436
8.627600000000001 0.0262250677953 -0.367108904964 0.9996526883689 -79.23206790324 0.9996526883689 -79.23206790324 0.0262260256328 21.913173896919
8.627800000000001 0.0262235913881 -0.370103531174 0.9996527270208 -79.23400884788 0.9996527270208 -79.23400884788 0.0262245493283 21.912287216423
8.628000000000000 0.0262221149272 -0.373098443425 0.9996527656705 -79.23594979575 0.9996527656705 -79.23594979575 0.0262230729706 21.911400821779
8.628200000000001 0.0262206383929 -0.376093650710 0.9996528043183 -79.23789074797 0.9996528043183 -79.23789074797 0.0262215965402 21.910514720395
8.628400000000001 0.0262191617711 -0.379089160057 0.9996528429649 -79.23983170538 0.9996528429649 -79.23983170538 0.0262201200229 21.909628916889
8.628600000000000 0.0262176850457 -0.382084978758 0.9996528816105 -79.24177266892 0.9996528816105 -79.24177266892 0.0262186434025 21.908743417541
8.628800000000000 0.0262162082006 -0.385081114894 0.9996529202556 -79.24371363953 0.9996529202556 -79.24371363953 0.0262171666630 21.907858227636
8.629000000000001 0.0262147312215 -0.388077574899 0.9996529589005 -79.24565461802 0.9996529589005 -79.24565461802 0.0262156897902 21.906973352639
8.629200000000001 0.0262132540917 -0.391074366959 0.9996529975457 -79.24759560540 0.9996529975457 -79.24759560540 0.0262142127672 21.906088798425
8.629400000000000 0.0262117767955 -0.394071498378 0.9996530361916 -79.24953660256 0.9996530361916 -79.24953660256 0.0262127355784 21.905204570755
8.629600000000000 0.0262102993173 -0.397068976785 0.9996530748386 -79.25147761043 0.9996530748386 -79.25147761043 0.0262112582082 21.904320675156
8.629800000000001 0.0262088216407 -0.400066810032 0.9996531134872 -79.25341862996 0.9996531134872 -79.25341862996 0.0262097806401 21.903437117516
8.630000000000001 0.0262073437514 -0.403065004616 0.9996531521377 -79.25535966197 0.9996531521377 -79.25535966197 0.0262083028601 21.902553903184
8.630200000000000 0.0262058656334 -0.406063568600 0.9996531907905 -79.25730070741 0.9996531907905 -79.25730070741 0.0262068248519 21.901671037673
8.630400000000000 0.0262043872707 -0.409062509219 0.9996532294460 -79.25924176722 0.9996532294460 -79.25924176722 0.0262053465995 21.900788527288
8.630600000000001 0.0262029086469 -0.412061834615 0.9996532681047 -79.26118284234 0.9996532681047 -79.26118284234 0.0262038680868 21.899906377491
8.630800000000001 0.0262014297467 -0.415061552470 0.9996533067671 -79.26312393367 0.9996533067671 -79.26312393367 0.0262023892981 21.899024593705
8.631000000000000 0.0261999505554 -0.418061669276 0.9996533454334 -79.26506504208 0.9996533454334 -79.26506504208 0.0262009102189 21.898143181798
8.631200000000000 0.0261984710571 -0.421062192777 0.9996533841041 -79.26700616847 0.9996533841041 -79.26700616847 0.0261994308334 21.897262147283
8.631400000000001 0.0261969912350 -0.424063131172 0.9996534227796 -79.26894731385 0.9996534227796 -79.26894731385 0.0261979511246 21.896381496431
8.631600000000001 0.0261955110744 -0.427064491481 0.9996534614602 -79.27088847906 0.9996534614602 -79.27088847906 0.0261964710780 21.895501234443
8.631800000000000 0.0261940305599 -0.430066281182 0.9996535001465 -79.27282966501 0.9996535001465 -79.27282966501 0.0261949906781 21.894621366935
8.632000000000000 0.0261925496749 -0.433068508209 0.9996535388389 -79.27477087266 0.9996535388389 -79.27477087266 0.0261935099083 21.893741900067
8.632200000000001 0.0261910684052 -0.436071179505 0.9996535775376 -79.27671210284 0.9996535775376 -79.27671210284 0.0261920287543 21.892862839052
8.632400000000001 0.0261895867330 -0.439074303585 0.9996536162432 -79.27865335660 0.9996536162432 -79.27865335660 0.0261905471985 21.891984190355
8.632600000000000 0.0261881046452 -0.442077886681 0.9996536549560 -79.28059463469 0.9996536549560 -79.28059463469 0.0261890652277 21.891105958949
8.632800000000001 0.0261866221232 -0.445081938069 0.9996536936766 -79.28253593821 0.9996536936766 -79.28253593821 0.0261875828232 21.890228151419
8.633000000000001 0.0261851391539 -0.448086463742 0.9996537324051 -79.28447726791 0.9996537324051 -79.28447726791 0.0261860999721 21.889350772846
8.633200000000000 0.0261836557214 -0.451091471842 0.9996537711421 -79.28641862473 0.9996537711421 -79.28641862473 0.0261846166585 21.888473828687
8.633400000000000 0.0261821718077 -0.454096970825 0.9996538098881 -79.28836000973 0.9996538098881 -79.28836000973 0.0261831328641 21.887597325938
8.633600000000001 0.0261806874002 -0.457102966817 0.9996538486433 -79.29030142362 0.9996538486433 -79.29030142362 0.0261816485766 21.886721269161
8.633800000000001 0.0261792024817 -0.460109468052 0.9996538874081 -79.29224286742 0.9996538874081 -79.29224286742 0.0261801637788 21.885845664855
8.634000000000000 0.0261777170375 -0.463116482028 0.9996539261831 -79.29418434199 0.9996539261831 -79.29418434199 0.0261786784558 21.884970518074
8.634200000000000 0.0261762310475 -0.466124018109 0.9996539649687 -79.29612584849 0.9996539649687 -79.29612584849 0.0261771925877 21.884095836685
8.634400000000001 0.0261747445028 -0.469132081098 0.9996540037651 -79.29806738746 0.9996540037651 -79.29806738746 0.0261757061654 21.883221623550
8.634600000000001 0.0261732573846 -0.472140679639 0.9996540425728 -79.30000895998 0.9996540425728 -79.30000895998 0.0261742191703 21.882347886255
8.634800000000000 0.0261717696757 -0.475149822535 0.9996540813923 -79.30195056707 0.9996540813923 -79.30195056707 0.0261727315851 21.881474630665
8.635000000000000 0.0261702813639 -0.478159515579 0.9996541202239 -79.30389220943 0.9996541202239 -79.30389220943 0.0261712433976 21.880601861441
8.635200000000001 0.0261687924300 -0.481169768343 0.9996541590681 -79.30583388819 0.9996541590681 -79.30583388819 0.0261697545887 21.879729585763
8.635400000000001 0.0261673028598 -0.484180587200 0.9996541979251 -79.30777560417 0.9996541979251 -79.30777560417 0.0261682651441 21.878857809182
8.635600000000000 0.0261658126381 -0.487191980580 0.9996542367957 -79.30971735827 0.9996542367957 -79.30971735827 0.0261667750485 21.877986536741
8.635800000000000 0.0261643217489 -0.490203955323 0.9996542756799 -79.31165915142 0.9996542756799 -79.31165915142 0.0261652842861 21.877115775241
8.636000000000001 0.0261628301757 -0.493216520048 0.9996543145783 -79.31360098457 0.9996543145783 -79.31360098457 0.0261637928403 21.876245530269
8.636200000000001 0.0261613379040 -0.496229681747 0.9996543534913 -79.31554285858 0.9996543534913 -79.31554285858 0.0261623006967 21.875375807414
8.636400000000000 0.0261598449170 -0.499243448803 0.9996543924192 -79.31748477444 0.9996543924192 -79.31748477444 0.0261608078383 21.874506613072
8.636600000000001 0.0261583511995 -0.502257828564 0.9996544313627 -79.31942673303 0.9996544313627 -79.31942673303 0.0261593142502 21.873637952742
8.636800000000001 0.0261568567360 -0.505272828585 0.9996544703218 -79.32136873524 0.9996544703218 -79.32136873524 0.0261578199166 21.872769832520
8.637000000000000 0.0261553615096 -0.508288457237 0.9996545092972 -79.32331078208 0.9996545092972 -79.32331078208 0.0261563248208 21.871902258675
8.637200000000000 0.0261538655056 -0.511304722084 0.9996545482893 -79.32525287440 0.9996545482893 -79.32525287440 0.0261548289479 21.871035236491
8.637400000000001 0.0261523687075 -0.514321630812 0.9996545872984 -79.32719501317 0.9996545872984 -79.32719501317 0.0261533322816 21.870168772525
8.637600000000001 0.0261508711007 -0.517339190812 0.9996546263248 -79.32913719923 0.9996546263248 -79.32913719923 0.0261518348073 21.869302872197
8.637800000000000 0.0261493726679 -0.520357410677 0.9996546653692 -79.33107943359 0.9996546653692 -79.33107943359 0.0261503365076 21.868437541972
8.638000000000000 0.0261478733943 -0.523376297479 0.9996547044317 -79.33302171713 0.9996547044317 -79.33302171713 0.0261488373677 21.867572787666
8.638200000000001 0.0261463732640 -0.526395859528 0.9996547435130 -79.33496405077 0.9996547435130 -79.33496405077 0.0261473373717 21.866708614941
8.638400000000001 0.0261448722603 -0.529416104720 0.9996547826134 -79.33690643549 0.9996547826134 -79.33690643549 0.0261458365030 21.865845030430
8.638600000000000 0.0261433703678 -0.532437040982 0.9996548217332 -79.33884887219 0.9996548217332 -79.33884887219 0.0261443347462 21.864982039809
8.638800000000000 0.0261418675718 -0.535458675262 0.9996548608729 -79.34079136171 0.9996548608729 -79.34079136171 0.0261428320865 21.864119648795
8.639000000000001 0.0261403638541 -0.538481016796 0.9996549000329 -79.34273390515 0.9996549000329 -79.34273390515 0.0261413285057 21.863257864364
8.639200000000001 0.0261388592016 -0.541504072290 0.9996549392136 -79.34467650324 0.9996549392136 -79.34467650324 0.0261398239908 21.862396691253
8.639400000000000 0.0261373535954 -0.544527850711 0.9996549784155 -79.34661915710 0.9996549784155 -79.34661915710 0.0261383185228 21.861536136894
8.639600000000000 0.0261358470211 -0.547552359775 0.9996550176389 -79.34856186758 0.9996550176389 -79.34856186758 0.0261368120874 21.860676206530
8.639800000000001 0.0261343394626 -0.550577606994 0.9996550568843 -79.35050463561 0.9996550568843 -79.35050463561 0.0261353046684 21.859816906597
8.640000000000001 0.0261328309045 -0.553603600233 0.9996550961520 -79.35244746209 0.9996550961520 -79.35244746209 0.0261337962504 21.858958242975
8.640200000000000 0.0261313213294 -0.556630348053 0.9996551354424 -79.35439034803 0.9996551354424 -79.35439034803 0.0261322868162 21.858100222279