! Sonnet Data File
! From: emgraph Version : 16.52
! From Project: 171117_Xmon_fullysym
! Data is De-embedded 
! Data File Written: 11/26/2017 21:44:47
!< HDATE 11/26/2017 17:24:49
!< MDATE 11/26/2017 17:24:49
!< PARAMS
!< Lj = 11.0
!< Gap = 1.0
!< Pwid = 2000.0
!< Airgap = 6.0
!< Width = 10.0
!< Lj1 = 10.4
!< END PARAMS
# GHZ S MA R 50.90000
8.600000000000001 0.0254330153071 -0.395936543856 0.9996732616207 -79.02214382377 0.9996732616207 -79.02214382405 0.0254339559291 22.361723334396
!< P1 F=8.6 Eeff=(6.44845572 -2.9799e-5) Z0=(50.9087207 1.17006e-4) R=0.0 C=0.0 
!< P2 F=8.6 Eeff=(6.44845572 -2.9799e-5) Z0=(50.9087207 1.17006e-4) R=0.0 C=0.0 
8.600200000000001 0.0254325958185 -0.398467040131 0.9996732721248 -79.02402338354 0.9996732721248 -79.02402338354 0.0254335365611 22.360495419732
8.600400000000000 0.0254321750889 -0.400998258922 0.9996732826347 -79.02590301726 0.9996732826347 -79.02590301726 0.0254331159319 22.359268040724
8.600600000000000 0.0254317530851 -0.403530172589 0.9996732931766 -79.02778272466 0.9996732931766 -79.02778272466 0.0254326940286 22.358041211133
8.600800000000001 0.0254313298050 -0.406062782230 0.9996733037504 -79.02966250588 0.9996733037504 -79.02966250588 0.0254322708493 22.356814932094
8.601000000000001 0.0254309052448 -0.408596090186 0.9996733143563 -79.03154236114 0.9996733143563 -79.03154236114 0.0254318463900 22.355589205255
8.601200000000000 0.0254304794016 -0.411130097925 0.9996733249944 -79.03342229059 0.9996733249944 -79.03342229059 0.0254314206480 22.354364031929
8.601400000000000 0.0254300522715 -0.413664807670 0.9996733356647 -79.03530229449 0.9996733356647 -79.03530229449 0.0254309936192 22.353139414053
8.601600000000001 0.0254296238512 -0.416200221519 0.9996733463673 -79.03718237301 0.9996733463673 -79.03718237301 0.0254305653004 22.351915352980
8.601800000000001 0.0254291941377 -0.418736341064 0.9996733571024 -79.03906252634 0.9996733571024 -79.03906252634 0.0254301356887 22.350691850043
8.602000000000000 0.0254287631267 -0.421273168757 0.9996733678699 -79.04094275472 0.9996733678699 -79.04094275472 0.0254297047796 22.349468907322
8.602200000000000 0.0254283308161 -0.423810705766 0.9996733786700 -79.04282305829 0.9996733786700 -79.04282305829 0.0254292725713 22.348246525735
8.602400000000001 0.0254278972008 -0.426348955119 0.9996733895028 -79.04470343733 0.9996733895028 -79.04470343733 0.0254288390584 22.347024707547
8.602600000000001 0.0254274622790 -0.428887917830 0.9996734003684 -79.04658389196 0.9996734003684 -79.04658389196 0.0254284042391 22.345803453709
8.602800000000000 0.0254270260463 -0.431427596373 0.9996734112667 -79.04846442244 0.9996734112667 -79.04846442244 0.0254279681092 22.344582766143
8.603000000000000 0.0254265884997 -0.433967992524 0.9996734221980 -79.05034502893 0.9996734221980 -79.05034502893 0.0254275306656 22.343362646237
8.603200000000001 0.0254261496352 -0.436509108526 0.9996734331623 -79.05222571169 0.9996734331623 -79.05222571169 0.0254270919043 22.342143095833
8.603400000000001 0.0254257094496 -0.439050946083 0.9996734441597 -79.05410647088 0.9996734441597 -79.05410647088 0.0254266518221 22.340924116483
8.603600000000000 0.0254252679396 -0.441593507338 0.9996734551902 -79.05598730671 0.9996734551902 -79.05598730671 0.0254262104157 22.339705709599
8.603800000000000 0.0254248251009 -0.444136794666 0.9996734662540 -79.05786821943 0.9996734662540 -79.05786821943 0.0254257676809 22.338487877024
8.604000000000001 0.0254243809308 -0.446680809495 0.9996734773512 -79.05974920920 0.9996734773512 -79.05974920920 0.0254253236149 22.337270620290
8.604200000000001 0.0254239354261 -0.449225553903 0.9996734884817 -79.06163027621 0.9996734884817 -79.06163027621 0.0254248782144 22.336053940688
8.604400000000000 0.0254234885815 -0.451771030690 0.9996734996459 -79.06351142077 0.9996734996459 -79.06351142077 0.0254244314742 22.334837840609
8.604600000000001 0.0254230403956 -0.454317240711 0.9996735108435 -79.06539264295 0.9996735108435 -79.06539264295 0.0254239833931 22.333622320850
8.604800000000001 0.0254225908629 -0.456864187288 0.9996735220750 -79.06727394309 0.9996735220750 -79.06727394309 0.0254235339653 22.332407383707
8.605000000000000 0.0254221399813 -0.459411871489 0.9996735333402 -79.06915532130 0.9996735333402 -79.06915532130 0.0254230831888 22.331193030332
8.605200000000000 0.0254216877460 -0.461960295947 0.9996735446392 -79.07103677787 0.9996735446392 -79.07103677787 0.0254226310589 22.329979262885
8.605400000000001 0.0254212341545 -0.464509462379 0.9996735559723 -79.07291831295 0.9996735559723 -79.07291831295 0.0254221775729 22.328766082531
8.605600000000001 0.0254207792017 -0.467059373544 0.9996735673394 -79.07479992682 0.9996735673394 -79.07479992682 0.0254217227259 22.327553491422
8.605800000000000 0.0254203228859 -0.469610030427 0.9996735787406 -79.07668161961 0.9996735787406 -79.07668161961 0.0254212665160 22.326341490669
8.606000000000000 0.0254198652012 -0.472161436419 0.9996735901761 -79.07856339165 0.9996735901761 -79.07856339165 0.0254208089376 22.325130082661
8.606200000000001 0.0254194061455 -0.474713592784 0.9996736016459 -79.08044524306 0.9996736016459 -79.08044524306 0.0254203499883 22.323919268540
8.606400000000001 0.0254189457147 -0.477266501799 0.9996736131501 -79.08232717408 0.9996736131501 -79.08232717408 0.0254198896642 22.322709050142
8.606600000000000 0.0254184839050 -0.479820165724 0.9996736246888 -79.08420918495 0.9996736246888 -79.08420918495 0.0254194279614 22.321499429157
8.606800000000000 0.0254180207125 -0.482374586685 0.9996736362621 -79.08609127588 0.9996736362621 -79.08609127588 0.0254189648759 22.320290407526
8.607000000000001 0.0254175561338 -0.484929766761 0.9996736478701 -79.08797344708 0.9996736478701 -79.08797344708 0.0254185004045 22.319081986698
8.607200000000001 0.0254170901648 -0.487485708197 0.9996736595129 -79.08985569878 0.9996736595129 -79.08985569878 0.0254180345432 22.317874168488
8.607400000000000 0.0254166228023 -0.490042412976 0.9996736711905 -79.09173803119 0.9996736711905 -79.09173803119 0.0254175672884 22.316666954567
8.607600000000000 0.0254161540419 -0.492599883445 0.9996736829031 -79.09362044454 0.9996736829031 -79.09362044454 0.0254170986360 22.315460346773
8.607800000000001 0.0254156838802 -0.495158121759 0.9996736946508 -79.09550293905 0.9996736946508 -79.09550293905 0.0254166285825 22.314254346712
8.608000000000001 0.0254152123128 -0.497717130288 0.9996737064336 -79.09738551498 0.9996737064336 -79.09738551498 0.0254161571236 22.313048956468
8.608200000000000 0.0254147393368 -0.500276910847 0.9996737182517 -79.09926817249 0.9996737182517 -79.09926817249 0.0254156842562 22.311844177344
8.608400000000001 0.0254142649476 -0.502837465841 0.9996737301051 -79.10115091185 0.9996737301051 -79.10115091185 0.0254152099759 22.310640011440
8.608600000000001 0.0254137891418 -0.505398797552 0.9996737419940 -79.10303373326 0.9996737419940 -79.10303373326 0.0254147342792 22.309436460274
8.608800000000000 0.0254133119149 -0.507960908227 0.9996737539183 -79.10491663699 0.9996737539183 -79.10491663699 0.0254142571618 22.308233525989
8.609000000000000 0.0254128332636 -0.510523800001 0.9996737658784 -79.10679962323 0.9996737658784 -79.10679962323 0.0254137786200 22.307031210100
8.609200000000001 0.0254123531840 -0.513087475122 0.9996737778741 -79.10868269221 0.9996737778741 -79.10868269221 0.0254132986502 22.305829514336
8.609400000000001 0.0254118716715 -0.515651936115 0.9996737899057 -79.11056584420 0.9996737899057 -79.11056584420 0.0254128172478 22.304628440790
8.609600000000000 0.0254113887234 -0.518217184540 0.9996738019731 -79.11244907937 0.9996738019731 -79.11244907937 0.0254123344100 22.303427990985
8.609800000000000 0.0254109043342 -0.520783223604 0.9996738140766 -79.11433239802 0.9996738140766 -79.11433239802 0.0254118501313 22.302228167049
8.610000000000001 0.0254104185012 -0.523350054838 0.9996738262162 -79.11621580032 0.9996738262162 -79.11621580032 0.0254113644091 22.301028970525
8.610200000000001 0.0254099312203 -0.525917680804 0.9996738383920 -79.11809928652 0.9996738383920 -79.11809928652 0.0254108772391 22.299830403118
8.610400000000000 0.0254094424869 -0.528486103827 0.9996738506040 -79.11998285688 0.9996738506040 -79.11998285688 0.0254103886170 22.298632467107
8.610600000000000 0.0254089522971 -0.531055326334 0.9996738628526 -79.12186651163 0.9996738628526 -79.12186651163 0.0254098985386 22.297435164110
8.610800000000001 0.0254084606470 -0.533625350510 0.9996738751376 -79.12375025099 0.9996738751376 -79.12375025099 0.0254094070003 22.296238496011
8.611000000000001 0.0254079675329 -0.536196178533 0.9996738874591 -79.12563407520 0.9996738874591 -79.12563407520 0.0254089139981 22.295042464587
8.611200000000000 0.0254074729500 -0.538767813214 0.9996738998174 -79.12751798452 0.9996738998174 -79.12751798452 0.0254084195274 22.293847071891
8.611400000000000 0.0254069768950 -0.541340256377 0.9996739122125 -79.12940197916 0.9996739122125 -79.12940197916 0.0254079235847 22.292652319565
8.611600000000001 0.0254064793637 -0.543913510376 0.9996739246445 -79.13128605936 0.9996739246445 -79.13128605936 0.0254074261661 22.291458209574
8.611800000000001 0.0254059803515 -0.546487578110 0.9996739371135 -79.13317022539 0.9996739371135 -79.13317022539 0.0254069272668 22.290264743869
8.612000000000000 0.0254054798543 -0.549062461595 0.9996739496196 -79.13505447748 0.9996739496196 -79.13505447748 0.0254064268828 22.289071924504
8.612200000000001 0.0254049778681 -0.551638163298 0.9996739621629 -79.13693881589 0.9996739621629 -79.13693881589 0.0254059250100 22.287879753312
8.612400000000001 0.0254044743889 -0.554214685687 0.9996739747435 -79.13882324083 0.9996739747435 -79.13882324083 0.0254054216444 22.286688231981
8.612600000000000 0.0254039694130 -0.556792030712 0.9996739873615 -79.14070775254 0.9996739873615 -79.14070775254 0.0254049167824 22.285497362413
8.612800000000000 0.0254034629351 -0.559370201457 0.9996740000170 -79.14259235131 0.9996740000170 -79.14259235131 0.0254044104186 22.284307146949
8.613000000000001 0.0254029549523 -0.561949199665 0.9996740127101 -79.14447703733 0.9996740127101 -79.14447703733 0.0254039025502 22.283117586964
8.613200000000001 0.0254024454589 -0.564529028513 0.9996740254410 -79.14636181091 0.9996740254410 -79.14636181091 0.0254033931715 22.281928684978
8.613400000000000 0.0254019344515 -0.567109690113 0.9996740382096 -79.14824667228 0.9996740382096 -79.14824667228 0.0254028822789 22.280740442684
8.613600000000000 0.0254014219261 -0.569691186589 0.9996740510162 -79.15013162165 0.9996740510162 -79.15013162165 0.0254023698686 22.279552861969
8.613800000000001 0.0254009078780 -0.572273520765 0.9996740638608 -79.15201665931 0.9996740638608 -79.15201665931 0.0254018559358 22.278365944961
8.614000000000001 0.0254003923032 -0.574856694968 0.9996740767435 -79.15390178549 0.9996740767435 -79.15390178549 0.0254013404767 22.277179693411
8.614200000000000 0.0253998751970 -0.577440711903 0.9996740896645 -79.15578700046 0.9996740896645 -79.15578700046 0.0254008234864 22.275994109499
8.614400000000000 0.0253993565549 -0.580025574023 0.9996741026238 -79.15767230450 0.9996741026238 -79.15767230450 0.0254003049604 22.274809195472
8.614600000000001 0.0253988363730 -0.582611283812 0.9996741156216 -79.15955769783 0.9996741156216 -79.15955769783 0.0253997848948 22.273624952975
8.614800000000001 0.0253983146474 -0.585197843454 0.9996741286579 -79.16144318068 0.9996741286579 -79.16144318068 0.0253992632858 22.272441383858
8.615000000000000 0.0253977913724 -0.587785256066 0.9996741417329 -79.16332875338 0.9996741417329 -79.16332875338 0.0253987401277 22.271258490732
8.615200000000000 0.0253972665453 -0.590373523370 0.9996741548466 -79.16521441609 0.9996741548466 -79.16521441609 0.0253982154178 22.270076274909
8.615400000000001 0.0253967401603 -0.592962648789 0.9996741679993 -79.16710016916 0.9996741679993 -79.16710016916 0.0253976891502 22.268894739012
8.615600000000001 0.0253962122134 -0.595552634508 0.9996741811909 -79.16898601282 0.9996741811909 -79.16898601282 0.0253971613209 22.267713884897
8.615800000000000 0.0253956827003 -0.598143482973 0.9996741944216 -79.17087194731 0.9996741944216 -79.17087194731 0.0253966319257 22.266533714588
8.616000000000000 0.0253951516164 -0.600735196884 0.9996742076915 -79.17275797292 0.9996742076915 -79.17275797292 0.0253961009601 22.265354230198
8.616200000000001 0.0253946189570 -0.603327779023 0.9996742210008 -79.17464408992 0.9996742210008 -79.17464408992 0.0253955684191 22.264175433863
8.616400000000001 0.0253940847188 -0.605921231301 0.9996742343494 -79.17653029850 0.9996742343494 -79.17653029850 0.0253950342996 22.262997327152
8.616600000000000 0.0253935488951 -0.608515557435 0.9996742477376 -79.17841659905 0.9996742477376 -79.17841659905 0.0253944985949 22.261819913202
8.616800000000001 0.0253930114835 -0.611110759002 0.9996742611654 -79.18030299172 0.9996742611654 -79.18030299172 0.0253939613025 22.260643193101
8.617000000000001 0.0253924724783 -0.613706839216 0.9996742746330 -79.18218947684 0.9996742746330 -79.18218947684 0.0253934224168 22.259467169405
8.617200000000000 0.0253919318753 -0.616303800634 0.9996742881405 -79.18407605467 0.9996742881405 -79.18407605467 0.0253928819335 22.258291844092
8.617400000000000 0.0253913896697 -0.618901645901 0.9996743016880 -79.18596272546 0.9996743016880 -79.18596272546 0.0253923398479 22.257117219375
8.617600000000001 0.0253908458570 -0.621500377420 0.9996743152754 -79.18784948951 0.9996743152754 -79.18784948951 0.0253917961555 22.255943297550
8.617800000000001 0.0253903004324 -0.624099998352 0.9996743289032 -79.18973634708 0.9996743289032 -79.18973634708 0.0253912508514 22.254770080570
8.618000000000000 0.0253897533913 -0.626700511214 0.9996743425713 -79.19162329844 0.9996743425713 -79.19162329844 0.0253907039312 22.253597570602
8.618200000000000 0.0253892047297 -0.629301918185 0.9996743562797 -79.19351034384 0.9996743562797 -79.19351034384 0.0253901553906 22.252425769747
8.618400000000001 0.0253886544419 -0.631904222621 0.9996743700287 -79.19539748360 0.9996743700287 -79.19539748360 0.0253896052243 22.251254680387
8.618600000000001 0.0253881025233 -0.634507427441 0.9996743838185 -79.19728471801 0.9996743838185 -79.19728471801 0.0253890534273 22.250084304645
8.618800000000000 0.0253875489700 -0.637111534592 0.9996743976490 -79.19917204727 0.9996743976490 -79.19917204727 0.0253884999959 22.248914644473
8.619000000000000 0.0253869937765 -0.639716547360 0.9996744115203 -79.20105947173 0.9996744115203 -79.20105947173 0.0253879449246 22.247745702423
8.619200000000001 0.0253864369384 -0.642322468349 0.9996744254327 -79.20294699163 0.9996744254327 -79.20294699163 0.0253873882090 22.246577480379
8.619400000000001 0.0253858784513 -0.644929300067 0.9996744393862 -79.20483460724 0.9996744393862 -79.20483460724 0.0253868298447 22.245409980572
8.619600000000000 0.0253853183098 -0.647537045629 0.9996744533809 -79.20672231887 0.9996744533809 -79.20672231887 0.0253862698262 22.244243205433
8.619800000000000 0.0253847565087 -0.650145708146 0.9996744674171 -79.20861012684 0.9996744674171 -79.20861012684 0.0253857081484 22.243077157256
8.620000000000001 0.0253841930432 -0.652755290198 0.9996744814947 -79.21049803141 0.9996744814947 -79.21049803141 0.0253851448065 22.241911838420
8.620200000000001 0.0253836279096 -0.655365794261 0.9996744956139 -79.21238603281 0.9996744956139 -79.21238603281 0.0253845797967 22.240747250546
8.620400000000000 0.0253830611025 -0.657977223051 0.9996745097748 -79.21427413136 0.9996745097748 -79.21427413136 0.0253840131137 22.239583396313
8.620600000000001 0.0253824926162 -0.660589580176 0.9996745239776 -79.21616232738 0.9996745239776 -79.21616232738 0.0253834447518 22.238420278185
8.620800000000001 0.0253819224468 -0.663202867732 0.9996745382223 -79.21805062112 0.9996745382223 -79.21805062112 0.0253828747071 22.237257898109
8.621000000000000 0.0253813505887 -0.665817089041 0.9996745525091 -79.21993901290 0.9996745525091 -79.21993901290 0.0253823029740 22.236096258594
8.621200000000000 0.0253807770375 -0.668432246730 0.9996745668381 -79.22182750297 0.9996745668381 -79.22182750297 0.0253817295481 22.234935361616
8.621400000000001 0.0253802017877 -0.671048343761 0.9996745812094 -79.22371609166 0.9996745812094 -79.22371609166 0.0253811544240 22.233775209973
8.621600000000001 0.0253796248343 -0.673665383389 0.9996745956232 -79.22560477927 0.9996745956232 -79.22560477927 0.0253805775963 22.232615805722
8.621800000000000 0.0253790461721 -0.676283368277 0.9996746100795 -79.22749356609 0.9996746100795 -79.22749356609 0.0253799990603 22.231457151438
8.622000000000000 0.0253784657972 -0.678902300915 0.9996746245785 -79.22938245237 0.9996746245785 -79.22938245237 0.0253794188118 22.230299248912
8.622200000000001 0.0253778837033 -0.681522184867 0.9996746391203 -79.23127143847 0.9996746391203 -79.23127143847 0.0253788368446 22.229142101105
8.622400000000001 0.0253772998860 -0.684143022648 0.9996746537051 -79.23316052464 0.9996746537051 -79.23316052464 0.0253782531544 22.227985710023
8.622600000000000 0.0253767143396 -0.686764817807 0.9996746683329 -79.23504971122 0.9996746683329 -79.23504971122 0.0253776677353 22.226830078184
8.622800000000000 0.0253761270595 -0.689387572620 0.9996746830039 -79.23693899849 0.9996746830039 -79.23693899849 0.0253770805828 22.225675208020
8.623000000000001 0.0253755380399 -0.692011290828 0.9996746977183 -79.23882838678 0.9996746977183 -79.23882838678 0.0253764916911 22.224521101917
8.623200000000001 0.0253749472768 -0.694635974429 0.9996747124760 -79.24071787633 0.9996747124760 -79.24071787633 0.0253759010562 22.223367762112
8.623400000000000 0.0253743547636 -0.697261627528 0.9996747272773 -79.24260746753 0.9996747272773 -79.24260746753 0.0253753086715 22.222215191318
8.623600000000000 0.0253737604965 -0.699888252324 0.9996747421224 -79.24449716060 0.9996747421224 -79.24449716060 0.0253747145331 22.221063391504
8.623800000000001 0.0253731644687 -0.702515852632 0.9996747570112 -79.24638695593 0.9996747570112 -79.24638695593 0.0253741186345 22.219912365667
8.624000000000001 0.0253725666762 -0.705144430817 0.9996747719440 -79.24827685377 0.9996747719440 -79.24827685377 0.0253735209714 22.218762115863
8.624200000000000 0.0253719671132 -0.707773990168 0.9996747869209 -79.25016685446 0.9996747869209 -79.25016685446 0.0253729215380 22.217612644821
8.624400000000001 0.0253713657742 -0.710404533965 0.9996748019419 -79.25205695831 0.9996748019419 -79.25205695831 0.0253723203291 22.216463954911
8.624600000000001 0.0253707626538 -0.713036065507 0.9996748170074 -79.25394716565 0.9996748170074 -79.25394716565 0.0253717173389 22.215316048697
8.624800000000000 0.0253701577479 -0.715668587007 0.9996748321173 -79.25583747672 0.9996748321173 -79.25583747672 0.0253711125637 22.214168928140
8.625000000000000 0.0253695510491 -0.718302102672 0.9996748472717 -79.25772789194 0.9996748472717 -79.25772789194 0.0253705059958 22.213022596722
8.625200000000001 0.0253689425543 -0.720936614658 0.9996748624710 -79.25961841152 0.9996748624710 -79.25961841152 0.0253698976322 22.211877055812
8.625400000000001 0.0253683322565 -0.723572126512 0.9996748777150 -79.26150903584 0.9996748777150 -79.26150903584 0.0253692874660 22.210732308867
8.625600000000000 0.0253677201501 -0.726208641939 0.9996748930041 -79.26339976525 0.9996748930041 -79.26339976525 0.0253686754914 22.209588358221
8.625800000000000 0.0253671062304 -0.728846163551 0.9996749083383 -79.26529060002 0.9996749083383 -79.26529060002 0.0253680617039 22.208445206209
8.626000000000001 0.0253664904915 -0.731484694750 0.9996749237177 -79.26718154050 0.9996749237177 -79.26718154050 0.0253674460974 22.207302855546
8.626200000000001 0.0253658729283 -0.734124238385 0.9996749391425 -79.26907258699 0.9996749391425 -79.26907258699 0.0253668286670 22.206161308789
8.626400000000000 0.0253652535350 -0.736764797985 0.9996749546129 -79.27096373982 0.9996749546129 -79.27096373982 0.0253662094069 22.205020568451
8.626600000000000 0.0253646323057 -0.739406377050 0.9996749701289 -79.27285499934 0.9996749701289 -79.27285499934 0.0253655883110 22.203880637258
8.626800000000001 0.0253640092350 -0.742048978615 0.9996749856908 -79.27474636588 0.9996749856908 -79.27474636588 0.0253649653740 22.202741517791
8.627000000000001 0.0253633843182 -0.744692605446 0.9996750012986 -79.27663783970 0.9996750012986 -79.27663783970 0.0253643405913 22.201603212326
8.627200000000000 0.0253627575481 -0.747337261644 0.9996750169524 -79.27852942124 0.9996750169524 -79.27852942124 0.0253637139556 22.200465724192
8.627400000000000 0.0253621289204 -0.749982949980 0.9996750326525 -79.28042111074 0.9996750326525 -79.28042111074 0.0253630854626 22.199329055307
8.627600000000001 0.0253614984287 -0.752629673914 0.9996750483989 -79.28231290858 0.9996750483989 -79.28231290858 0.0253624551059 22.198193208767
8.627800000000001 0.0253608660667 -0.755277437123 0.9996750641918 -79.28420481513 0.9996750641918 -79.28420481513 0.0253618228792 22.197058187545
8.628000000000000 0.0253602318307 -0.757926242008 0.9996750800314 -79.28609683061 0.9996750800314 -79.28609683061 0.0253611887789 22.195923993226
8.628200000000001 0.0253595957128 -0.760576092867 0.9996750959177 -79.28798895547 0.9996750959177 -79.28798895547 0.0253605527970 22.194790629705
8.628400000000001 0.0253589577083 -0.763226992673 0.9996751118509 -79.28988119001 0.9996751118509 -79.28988119001 0.0253599149289 22.193658098947
8.628600000000000 0.0253583178110 -0.765878944885 0.9996751278312 -79.29177353458 0.9996751278312 -79.29177353458 0.0253592751682 22.192526404076
8.628800000000000 0.0253576760151 -0.768531953091 0.9996751438587 -79.29366598952 0.9996751438587 -79.29366598952 0.0253586335093 22.191395547596
8.629000000000001 0.0253570323152 -0.771186020266 0.9996751599334 -79.29555855515 0.9996751599334 -79.29555855515 0.0253579899467 22.190265532260
8.629200000000001 0.0253563867051 -0.773841150055 0.9996751760557 -79.29745123184 0.9996751760557 -79.29745123184 0.0253573444743 22.189136360746
8.629400000000000 0.0253557391787 -0.776497346022 0.9996751922256 -79.29934401993 0.9996751922256 -79.29934401993 0.0253566970859 22.188008036092
8.629600000000000 0.0253550897303 -0.779154611547 0.9996752084433 -79.30123691978 0.9996752084433 -79.30123691978 0.0253560477758 22.186880560913
8.629800000000001 0.0253544383533 -0.781812950484 0.9996752247089 -79.30312993177 0.9996752247089 -79.30312993177 0.0253553965375 22.185753938155
8.630000000000001 0.0253537850430 -0.784472365502 0.9996752410225 -79.30502305617 0.9996752410225 -79.30502305617 0.0253547433661 22.184628170328
8.630200000000000 0.0253531297927 -0.787132860633 0.9996752573844 -79.30691629337 0.9996752573844 -79.30691629337 0.0253540882552 22.183503260242
8.630400000000000 0.0253524725962 -0.789794439191 0.9996752737945 -79.30880964374 0.9996752737945 -79.30880964374 0.0253534311984 22.182379211154
8.630600000000001 0.0253518134473 -0.792457105118 0.9996752902532 -79.31070310764 0.9996752902532 -79.31070310764 0.0253527721896 22.181256025679
8.630800000000001 0.0253511523401 -0.795120862016 0.9996753067606 -79.31259668544 0.9996753067606 -79.31259668544 0.0253521112226 22.180133706554
8.631000000000000 0.0253504892685 -0.797785712964 0.9996753233167 -79.31449037746 0.9996753233167 -79.31449037746 0.0253514482918 22.179012256838
8.631200000000000 0.0253498242269 -0.800451661586 0.9996753399218 -79.31638418406 0.9996753399218 -79.31638418406 0.0253507833912 22.177891679129
8.631400000000001 0.0253491572078 -0.803118712000 0.9996753565759 -79.31827810567 0.9996753565759 -79.31827810567 0.0253501165136 22.176771976877
8.631600000000001 0.0253484882063 -0.805786867348 0.9996753732794 -79.32017214258 0.9996753732794 -79.32017214258 0.0253494476539 22.175653152406
8.631800000000000 0.0253478172157 -0.808456131399 0.9996753900322 -79.32206629518 0.9996753900322 -79.32206629518 0.0253487768054 22.174535208902
8.632000000000000 0.0253471442296 -0.811126507916 0.9996754068345 -79.32396056384 0.9996754068345 -79.32396056384 0.0253481039618 22.173418149255
8.632200000000001 0.0253464692421 -0.813798000400 0.9996754236866 -79.32585494892 0.9996754236866 -79.32585494892 0.0253474291170 22.172301976393
8.632400000000001 0.0253457922461 -0.816470612911 0.9996754405885 -79.32774945083 0.9996754405885 -79.32774945083 0.0253467522642 22.171186693492
8.632600000000000 0.0253451132364 -0.819144348496 0.9996754575404 -79.32964406988 0.9996754575404 -79.32964406988 0.0253460733981 22.170072303153
8.632800000000001 0.0253444322051 -0.821819211859 0.9996754745425 -79.33153880653 0.9996754745425 -79.33153880653 0.0253453925107 22.168958808972
8.633000000000001 0.0253437491473 -0.824495205774 0.9996754915949 -79.33343366108 0.9996754915949 -79.33343366108 0.0253447095971 22.167846213387
8.633200000000000 0.0253430640563 -0.827172334392 0.9996755086978 -79.33532863390 0.9996755086978 -79.33532863390 0.0253440246507 22.166734519289
8.633400000000000 0.0253423769243 -0.829850601949 0.9996755258513 -79.33722372547 0.9996755258513 -79.33722372547 0.0253433376637 22.165623730536
8.633600000000001 0.0253416877466 -0.832530011476 0.9996755430556 -79.33911893606 0.9996755430556 -79.33911893606 0.0253426486313 22.164513849349
8.633800000000001 0.0253409965158 -0.835210567013 0.9996755603108 -79.34101426609 0.9996755603108 -79.34101426609 0.0253419575463 22.163404879268
8.634000000000000 0.0253403032260 -0.837892272383 0.9996755776171 -79.34290971593 0.9996755776171 -79.34290971593 0.0253412644025 22.162296822855
8.634200000000000 0.0253396078679 -0.840575132537 0.9996755949748 -79.34480528611 0.9996755949748 -79.34480528611 0.0253405691909 22.161189684569
8.634400000000001 0.0253389104391 -0.843259149530 0.9996756123838 -79.34670097679 0.9996756123838 -79.34670097679 0.0253398719089 22.160083465579
8.634600000000001 0.0253382109306 -0.845944328025 0.9996756298444 -79.34859678848 0.9996756298444 -79.34859678848 0.0253391725476 22.158978170242
8.634800000000000 0.0253375093354 -0.848630672430 0.9996756473568 -79.35049272160 0.9996756473568 -79.35049272160 0.0253384711000 22.157873801636
8.635000000000000 0.0253368056490 -0.851318185472 0.9996756649210 -79.35238877641 0.9996756649210 -79.35238877641 0.0253377675615 22.156770362058
8.635200000000001 0.0253360998616 -0.854006872712 0.9996756825374 -79.35428495349 0.9996756825374 -79.35428495349 0.0253370619224 22.155667855859
8.635400000000001 0.0253353919685 -0.856696736813 0.9996757002059 -79.35618125311 0.9996757002059 -79.35618125311 0.0253363541780 22.154566285643
8.635600000000000 0.0253346819625 -0.859387782435 0.9996757179270 -79.35807767571 0.9996757179270 -79.35807767571 0.0253356443211 22.153465654328
8.635800000000000 0.0253339698368 -0.862080013021 0.9996757357005 -79.35997422167 0.9996757357005 -79.35997422167 0.0253349323448 22.152365965631
8.636000000000001 0.0253332555842 -0.864773433104 0.9996757535267 -79.36187089142 0.9996757535267 -79.36187089142 0.0253342182421 22.151267222615
8.636200000000001 0.0253325391985 -0.867468046259 0.9996757714059 -79.36376768532 0.9996757714059 -79.36376768532 0.0253335020066 22.150169428266
8.636400000000000 0.0253318206718 -0.870163857145 0.9996757893381 -79.36566460385 0.9996757893381 -79.36566460385 0.0253327836306 22.149072586316
8.636600000000001 0.0253310999981 -0.872860869349 0.9996758073236 -79.36756164735 0.9996758073236 -79.36756164735 0.0253320631078 22.147976699634
8.636800000000001 0.0253303771702 -0.875559086883 0.9996758253625 -79.36945881624 0.9996758253625 -79.36945881624 0.0253313404313 22.146881771614
8.637000000000000 0.0253296521804 -0.878258514348 0.9996758434549 -79.37135611098 0.9996758434549 -79.37135611098 0.0253306155934 22.145787805857
8.637200000000000 0.0253289250225 -0.880959155648 0.9996758616011 -79.37325353194 0.9996758616011 -79.37325353194 0.0253298885876 22.144694805226
8.637400000000001 0.0253281956889 -0.883661014927 0.9996758798012 -79.37515107956 0.9996758798012 -79.37515107956 0.0253291594065 22.143602773439
8.637600000000001 0.0253274641731 -0.886364096098 0.9996758980554 -79.37704875421 0.9996758980554 -79.37704875421 0.0253284280437 22.142511713500
8.637800000000000 0.0253267304672 -0.889068403842 0.9996759163639 -79.37894655637 0.9996759163639 -79.37894655637 0.0253276944911 22.141421629148
8.638000000000000 0.0253259945647 -0.891773941815 0.9996759347267 -79.38084448642 0.9996759347267 -79.38084448642 0.0253269587424 22.140332523584
8.638200000000001 0.0253252564583 -0.894480714585 0.9996759531442 -79.38274254479 0.9996759531442 -79.38274254479 0.0253262207902 22.139244399997
8.638400000000001 0.0253245161403 -0.897188726452 0.9996759716165 -79.38464073193 0.9996759716165 -79.38464073193 0.0253254806268 22.138157262155
8.638600000000000 0.0253237736033 -0.899897981887 0.9996759901437 -79.38653904827 0.9996759901437 -79.38653904827 0.0253247382448 22.137071113522
8.638800000000000 0.0253230288414 -0.902608484331 0.9996760087261 -79.38843749416 0.9996760087261 -79.38843749416 0.0253239936382 22.135985957017
8.639000000000001 0.0253222818455 -0.905320239047 0.9996760273637 -79.39033607014 0.9996760273637 -79.39033607014 0.0253232467981 22.134901796897
8.639200000000001 0.0253215326097 -0.908033249677 0.9996760460569 -79.39223477655 0.9996760460569 -79.39223477655 0.0253224977185 22.133818635799
8.639400000000000 0.0253207811254 -0.910747521125 0.9996760648057 -79.39413361391 0.9996760648057 -79.39413361391 0.0253217463908 22.132736477967
8.639600000000000 0.0253200273854 -0.913463057783 0.9996760836104 -79.39603258262 0.9996760836104 -79.39603258262 0.0253209928078 22.131655326587
8.639800000000001 0.0253192713827 -0.916179863561 0.9996761024712 -79.39793168310 0.9996761024712 -79.39793168310 0.0253202369626 22.130575185194
8.640000000000001 0.0253185131098 -0.918897943015 0.9996761213881 -79.39983091580 0.9996761213881 -79.39983091580 0.0253194788476 22.129496057314
8.640200000000000 0.0253177525585 -0.921617300868 0.9996761403614 -79.40173028120 0.9996761403614 -79.40173028120 0.0253187184546 22.128417946850