! Sonnet Data File
! From: emgraph Version : 16.52
! From Project: 171117_Xmon_fullysym
! Data is De-embedded 
! Data File Written: 11/27/2017 00:27:55
!< HDATE 11/26/2017 21:47:59
!< MDATE 11/26/2017 21:47:59
!< PARAMS
!< Lj = 11.0
!< Gap = 1.0
!< Pwid = 2000.0
!< Airgap = 6.0
!< Width = 10.0
!< Lj1 = 10.68
!< END PARAMS
# GHZ S MA R 50.90000
8.76000000 0.023097 -3.585 0.999729 -80.64 0.999729 -80.64 0.023099 22.315
!< P1 F=8.76 Eeff=(6.44841381 -2.9796e-5) Z0=(50.9085048 1.17026e-4) R=0.0 C=0.0 
!< P2 F=8.76 Eeff=(6.44841381 -2.9796e-5) Z0=(50.9085048 1.17026e-4) R=0.0 C=0.0 
8.76005000 0.023094 -3.587 0.999729 -80.64 0.999729 -80.64 0.023096 22.316
8.76010000 0.023092 -3.589 0.999729 -80.64 0.999729 -80.64 0.023093 22.317
8.76015000 0.023089 -3.592 0.999729 -80.64 0.999729 -80.64 0.023091 22.318
8.76020000 0.023087 -3.594 0.999729 -80.65 0.999729 -80.65 0.023088 22.319
8.76025000 0.023084 -3.596 0.999729 -80.65 0.999729 -80.65 0.023086 22.320
8.76030000 0.023082 -3.599 0.999729 -80.65 0.999729 -80.65 0.023083 22.321
8.76035000 0.023079 -3.601 0.999729 -80.65 0.999729 -80.65 0.023080 22.322
8.76040000 0.023076 -3.603 0.999729 -80.65 0.999729 -80.65 0.023078 22.323
8.76045000 0.023074 -3.605 0.999729 -80.65 0.999729 -80.65 0.023075 22.324
8.76050000 0.023071 -3.608 0.999730 -80.65 0.999730 -80.65 0.023073 22.325
8.76055000 0.023069 -3.610 0.999730 -80.65 0.999730 -80.65 0.023070 22.326
8.76060000 0.023066 -3.612 0.999730 -80.65 0.999730 -80.65 0.023067 22.327
8.76065000 0.023063 -3.615 0.999730 -80.65 0.999730 -80.65 0.023065 22.329
8.76070000 0.023061 -3.617 0.999730 -80.65 0.999730 -80.65 0.023062 22.330
8.76075000 0.023058 -3.619 0.999730 -80.65 0.999730 -80.65 0.023060 22.331
8.76080000 0.023055 -3.622 0.999730 -80.65 0.999730 -80.65 0.023057 22.332
8.76085000 0.023053 -3.624 0.999730 -80.65 0.999730 -80.65 0.023054 22.333
8.76090000 0.023050 -3.626 0.999730 -80.65 0.999730 -80.65 0.023052 22.334
8.76095000 0.023048 -3.629 0.999730 -80.65 0.999730 -80.65 0.023049 22.335
8.76100000 0.023045 -3.631 0.999730 -80.66 0.999730 -80.66 0.023046 22.336
8.76105000 0.023042 -3.633 0.999730 -80.66 0.999730 -80.66 0.023044 22.337
8.76110000 0.023040 -3.636 0.999730 -80.66 0.999730 -80.66 0.023041 22.339
8.76115000 0.023037 -3.638 0.999730 -80.66 0.999730 -80.66 0.023038 22.340
8.76120000 0.023034 -3.640 0.999730 -80.66 0.999730 -80.66 0.023036 22.341
8.76125000 0.023032 -3.643 0.999730 -80.66 0.999730 -80.66 0.023033 22.342
8.76130000 0.023029 -3.645 0.999730 -80.66 0.999730 -80.66 0.023030 22.343
8.76135000 0.023026 -3.648 0.999731 -80.66 0.999731 -80.66 0.023028 22.344
8.76140000 0.023023 -3.650 0.999731 -80.66 0.999731 -80.66 0.023025 22.345
8.76145000 0.023021 -3.652 0.999731 -80.66 0.999731 -80.66 0.023022 22.347
8.76150000 0.023018 -3.655 0.999731 -80.66 0.999731 -80.66 0.023020 22.348
8.76155000 0.023015 -3.657 0.999731 -80.66 0.999731 -80.66 0.023017 22.349
8.76160000 0.023013 -3.660 0.999731 -80.66 0.999731 -80.66 0.023014 22.350
8.76165000 0.023010 -3.662 0.999731 -80.66 0.999731 -80.66 0.023011 22.351
8.76170000 0.023007 -3.664 0.999731 -80.66 0.999731 -80.66 0.023009 22.352
8.76175000 0.023004 -3.667 0.999731 -80.66 0.999731 -80.66 0.023006 22.354
8.76180000 0.023002 -3.669 0.999731 -80.67 0.999731 -80.67 0.023003 22.355
8.76185000 0.022999 -3.672 0.999731 -80.67 0.999731 -80.67 0.023001 22.356
8.76190000 0.022996 -3.674 0.999731 -80.67 0.999731 -80.67 0.022998 22.357
8.76195000 0.022993 -3.676 0.999731 -80.67 0.999731 -80.67 0.022995 22.358
8.76200000 0.022991 -3.679 0.999731 -80.67 0.999731 -80.67 0.022992 22.359
8.76205000 0.022988 -3.681 0.999731 -80.67 0.999731 -80.67 0.022989 22.361
8.76210000 0.022985 -3.684 0.999731 -80.67 0.999731 -80.67 0.022987 22.362
8.76215000 0.022982 -3.686 0.999732 -80.67 0.999732 -80.67 0.022984 22.363
8.76220000 0.022980 -3.689 0.999732 -80.67 0.999732 -80.67 0.022981 22.364
8.76225000 0.022977 -3.691 0.999732 -80.67 0.999732 -80.67 0.022978 22.365
8.76230000 0.022974 -3.694 0.999732 -80.67 0.999732 -80.67 0.022976 22.367
8.76235000 0.022971 -3.696 0.999732 -80.67 0.999732 -80.67 0.022973 22.368
8.76240000 0.022968 -3.698 0.999732 -80.67 0.999732 -80.67 0.022970 22.369
8.76245000 0.022966 -3.701 0.999732 -80.67 0.999732 -80.67 0.022967 22.370
8.76250000 0.022963 -3.703 0.999732 -80.67 0.999732 -80.67 0.022964 22.372
8.76255000 0.022960 -3.706 0.999732 -80.67 0.999732 -80.67 0.022962 22.373
8.76260000 0.022957 -3.708 0.999732 -80.68 0.999732 -80.68 0.022959 22.374
8.76265000 0.022954 -3.711 0.999732 -80.68 0.999732 -80.68 0.022956 22.375
8.76270000 0.022951 -3.713 0.999732 -80.68 0.999732 -80.68 0.022953 22.377
8.76275000 0.022949 -3.716 0.999732 -80.68 0.999732 -80.68 0.022950 22.378
8.76280000 0.022946 -3.718 0.999732 -80.68 0.999732 -80.68 0.022947 22.379
8.76285000 0.022943 -3.721 0.999732 -80.68 0.999732 -80.68 0.022944 22.380
8.76290000 0.022940 -3.723 0.999732 -80.68 0.999732 -80.68 0.022942 22.382
8.76295000 0.022937 -3.726 0.999733 -80.68 0.999733 -80.68 0.022939 22.383
8.76300000 0.022934 -3.729 0.999733 -80.68 0.999733 -80.68 0.022936 22.384
8.76305000 0.022931 -3.731 0.999733 -80.68 0.999733 -80.68 0.022933 22.385
8.76310000 0.022928 -3.734 0.999733 -80.68 0.999733 -80.68 0.022930 22.387
8.76315000 0.022926 -3.736 0.999733 -80.68 0.999733 -80.68 0.022927 22.388
8.76320000 0.022923 -3.739 0.999733 -80.68 0.999733 -80.68 0.022924 22.389
8.76325000 0.022920 -3.741 0.999733 -80.68 0.999733 -80.68 0.022921 22.391
8.76330000 0.022917 -3.744 0.999733 -80.68 0.999733 -80.68 0.022918 22.392
8.76335000 0.022914 -3.746 0.999733 -80.68 0.999733 -80.68 0.022916 22.393
8.76340000 0.022911 -3.749 0.999733 -80.69 0.999733 -80.69 0.022913 22.394
8.76345000 0.022908 -3.751 0.999733 -80.69 0.999733 -80.69 0.022910 22.396
8.76350000 0.022905 -3.754 0.999733 -80.69 0.999733 -80.69 0.022907 22.397
8.76355000 0.022902 -3.757 0.999733 -80.69 0.999733 -80.69 0.022904 22.398
8.76360000 0.022899 -3.759 0.999733 -80.69 0.999733 -80.69 0.022901 22.400
8.76365000 0.022896 -3.762 0.999733 -80.69 0.999733 -80.69 0.022898 22.401
8.76370000 0.022893 -3.764 0.999733 -80.69 0.999733 -80.69 0.022895 22.402
8.76375000 0.022890 -3.767 0.999734 -80.69 0.999734 -80.69 0.022892 22.404
8.76380000 0.022887 -3.770 0.999734 -80.69 0.999734 -80.69 0.022889 22.405
8.76385000 0.022884 -3.772 0.999734 -80.69 0.999734 -80.69 0.022886 22.406
8.76390000 0.022881 -3.775 0.999734 -80.69 0.999734 -80.69 0.022883 22.408
8.76395000 0.022878 -3.778 0.999734 -80.69 0.999734 -80.69 0.022880 22.409
8.76400000 0.022875 -3.780 0.999734 -80.69 0.999734 -80.69 0.022877 22.411
8.76405000 0.022872 -3.783 0.999734 -80.69 0.999734 -80.69 0.022874 22.412
8.76410000 0.022869 -3.785 0.999734 -80.69 0.999734 -80.69 0.022871 22.413
8.76415000 0.022866 -3.788 0.999734 -80.70 0.999734 -80.70 0.022868 22.415
8.76420000 0.022863 -3.791 0.999734 -80.70 0.999734 -80.70 0.022865 22.416
8.76425000 0.022860 -3.793 0.999734 -80.70 0.999734 -80.70 0.022862 22.417
8.76430000 0.022857 -3.796 0.999734 -80.70 0.999734 -80.70 0.022859 22.419
8.76435000 0.022854 -3.799 0.999734 -80.70 0.999734 -80.70 0.022856 22.420
8.76440000 0.022851 -3.801 0.999734 -80.70 0.999734 -80.70 0.022853 22.422
8.76445000 0.022848 -3.804 0.999734 -80.70 0.999734 -80.70 0.022850 22.423
8.76450000 0.022845 -3.807 0.999735 -80.70 0.999735 -80.70 0.022847 22.425
8.76455000 0.022842 -3.810 0.999735 -80.70 0.999735 -80.70 0.022843 22.426
8.76460000 0.022839 -3.812 0.999735 -80.70 0.999735 -80.70 0.022840 22.427
8.76465000 0.022836 -3.815 0.999735 -80.70 0.999735 -80.70 0.022837 22.429
8.76470000 0.022833 -3.818 0.999735 -80.70 0.999735 -80.70 0.022834 22.430
8.76475000 0.022829 -3.820 0.999735 -80.70 0.999735 -80.70 0.022831 22.432
8.76480000 0.022826 -3.823 0.999735 -80.70 0.999735 -80.70 0.022828 22.433
8.76485000 0.022823 -3.826 0.999735 -80.70 0.999735 -80.70 0.022825 22.435
8.76490000 0.022820 -3.829 0.999735 -80.70 0.999735 -80.70 0.022822 22.436
8.76495000 0.022817 -3.831 0.999735 -80.71 0.999735 -80.71 0.022819 22.437
8.76500000 0.022814 -3.834 0.999735 -80.71 0.999735 -80.71 0.022815 22.439
8.76505000 0.022811 -3.837 0.999735 -80.71 0.999735 -80.71 0.022812 22.440
8.76510000 0.022807 -3.840 0.999735 -80.71 0.999735 -80.71 0.022809 22.442
8.76515000 0.022804 -3.842 0.999735 -80.71 0.999735 -80.71 0.022806 22.443
8.76520000 0.022801 -3.845 0.999736 -80.71 0.999736 -80.71 0.022803 22.445
8.76525000 0.022798 -3.848 0.999736 -80.71 0.999736 -80.71 0.022800 22.446
8.76530000 0.022795 -3.851 0.999736 -80.71 0.999736 -80.71 0.022796 22.448
8.76535000 0.022792 -3.854 0.999736 -80.71 0.999736 -80.71 0.022793 22.449
8.76540000 0.022788 -3.856 0.999736 -80.71 0.999736 -80.71 0.022790 22.451
8.76545000 0.022785 -3.859 0.999736 -80.71 0.999736 -80.71 0.022787 22.452
8.76550000 0.022782 -3.862 0.999736 -80.71 0.999736 -80.71 0.022784 22.454
8.76555000 0.022779 -3.865 0.999736 -80.71 0.999736 -80.71 0.022780 22.455
8.76560000 0.022775 -3.868 0.999736 -80.71 0.999736 -80.71 0.022777 22.457
8.76565000 0.022772 -3.870 0.999736 -80.71 0.999736 -80.71 0.022774 22.459
8.76570000 0.022769 -3.873 0.999736 -80.72 0.999736 -80.72 0.022771 22.460
8.76575000 0.022766 -3.876 0.999736 -80.72 0.999736 -80.72 0.022767 22.462
8.76580000 0.022762 -3.879 0.999736 -80.72 0.999736 -80.72 0.022764 22.463
8.76585000 0.022759 -3.882 0.999736 -80.72 0.999736 -80.72 0.022761 22.465
8.76590000 0.022756 -3.885 0.999736 -80.72 0.999736 -80.72 0.022758 22.466
8.76595000 0.022753 -3.888 0.999737 -80.72 0.999737 -80.72 0.022754 22.468
8.76600000 0.022749 -3.890 0.999737 -80.72 0.999737 -80.72 0.022751 22.470
8.76605000 0.022746 -3.893 0.999737 -80.72 0.999737 -80.72 0.022748 22.471
8.76610000 0.022743 -3.896 0.999737 -80.72 0.999737 -80.72 0.022744 22.473
8.76615000 0.022739 -3.899 0.999737 -80.72 0.999737 -80.72 0.022741 22.474
8.76620000 0.022736 -3.902 0.999737 -80.72 0.999737 -80.72 0.022738 22.476
8.76625000 0.022733 -3.905 0.999737 -80.72 0.999737 -80.72 0.022734 22.478
8.76630000 0.022729 -3.908 0.999737 -80.72 0.999737 -80.72 0.022731 22.479
8.76635000 0.022726 -3.911 0.999737 -80.72 0.999737 -80.72 0.022728 22.481
8.76640000 0.022723 -3.914 0.999737 -80.72 0.999737 -80.72 0.022724 22.482
8.76645000 0.022719 -3.917 0.999737 -80.73 0.999737 -80.73 0.022721 22.484
8.76650000 0.022716 -3.920 0.999737 -80.73 0.999737 -80.73 0.022717 22.486
8.76655000 0.022712 -3.923 0.999737 -80.73 0.999737 -80.73 0.022714 22.487
8.76660000 0.022709 -3.926 0.999738 -80.73 0.999738 -80.73 0.022711 22.489
8.76665000 0.022706 -3.929 0.999738 -80.73 0.999738 -80.73 0.022707 22.491
8.76670000 0.022702 -3.932 0.999738 -80.73 0.999738 -80.73 0.022704 22.492
8.76675000 0.022699 -3.935 0.999738 -80.73 0.999738 -80.73 0.022700 22.494
8.76680000 0.022695 -3.938 0.999738 -80.73 0.999738 -80.73 0.022697 22.496
8.76685000 0.022692 -3.941 0.999738 -80.73 0.999738 -80.73 0.022694 22.497
8.76690000 0.022688 -3.944 0.999738 -80.73 0.999738 -80.73 0.022690 22.499
8.76695000 0.022685 -3.947 0.999738 -80.73 0.999738 -80.73 0.022687 22.501
8.76700000 0.022681 -3.950 0.999738 -80.73 0.999738 -80.73 0.022683 22.503
8.76705000 0.022678 -3.953 0.999738 -80.73 0.999738 -80.73 0.022680 22.504
8.76710000 0.022674 -3.956 0.999738 -80.73 0.999738 -80.73 0.022676 22.506
8.76715000 0.022671 -3.959 0.999738 -80.73 0.999738 -80.73 0.022673 22.508
8.76720000 0.022667 -3.962 0.999738 -80.74 0.999738 -80.74 0.022669 22.509
8.76725000 0.022664 -3.965 0.999738 -80.74 0.999738 -80.74 0.022666 22.511
8.76730000 0.022660 -3.968 0.999739 -80.74 0.999739 -80.74 0.022662 22.513
8.76735000 0.022657 -3.971 0.999739 -80.74 0.999739 -80.74 0.022659 22.515
8.76740000 0.022653 -3.974 0.999739 -80.74 0.999739 -80.74 0.022655 22.517
8.76745000 0.022650 -3.977 0.999739 -80.74 0.999739 -80.74 0.022651 22.518
8.76750000 0.022646 -3.980 0.999739 -80.74 0.999739 -80.74 0.022648 22.520
8.76755000 0.022643 -3.984 0.999739 -80.74 0.999739 -80.74 0.022644 22.522
8.76760000 0.022639 -3.987 0.999739 -80.74 0.999739 -80.74 0.022641 22.524
8.76765000 0.022635 -3.990 0.999739 -80.74 0.999739 -80.74 0.022637 22.526
8.76770000 0.022632 -3.993 0.999739 -80.74 0.999739 -80.74 0.022634 22.527
8.76775000 0.022628 -3.996 0.999739 -80.74 0.999739 -80.74 0.022630 22.529
8.76780000 0.022625 -3.999 0.999739 -80.74 0.999739 -80.74 0.022626 22.531
8.76785000 0.022621 -4.003 0.999739 -80.74 0.999739 -80.74 0.022623 22.533
8.76790000 0.022617 -4.006 0.999739 -80.74 0.999739 -80.74 0.022619 22.535
8.76795000 0.022614 -4.009 0.999740 -80.75 0.999740 -80.75 0.022615 22.537
8.76800000 0.022610 -4.012 0.999740 -80.75 0.999740 -80.75 0.022612 22.538
8.76805000 0.022606 -4.015 0.999740 -80.75 0.999740 -80.75 0.022608 22.540
8.76810000 0.022603 -4.019 0.999740 -80.75 0.999740 -80.75 0.022604 22.542
8.76815000 0.022599 -4.022 0.999740 -80.75 0.999740 -80.75 0.022601 22.544
8.76820000 0.022595 -4.025 0.999740 -80.75 0.999740 -80.75 0.022597 22.546
8.76825000 0.022591 -4.028 0.999740 -80.75 0.999740 -80.75 0.022593 22.548
8.76830000 0.022588 -4.032 0.999740 -80.75 0.999740 -80.75 0.022589 22.550
8.76835000 0.022584 -4.035 0.999740 -80.75 0.999740 -80.75 0.022586 22.552
8.76840000 0.022580 -4.038 0.999740 -80.75 0.999740 -80.75 0.022582 22.554
8.76845000 0.022576 -4.041 0.999740 -80.75 0.999740 -80.75 0.022578 22.556
8.76850000 0.022573 -4.045 0.999740 -80.75 0.999740 -80.75 0.022574 22.558
8.76855000 0.022569 -4.048 0.999741 -80.75 0.999741 -80.75 0.022571 22.559
8.76860000 0.022565 -4.051 0.999741 -80.75 0.999741 -80.75 0.022567 22.561
8.76865000 0.022561 -4.055 0.999741 -80.75 0.999741 -80.75 0.022563 22.563
8.76870000 0.022557 -4.058 0.999741 -80.76 0.999741 -80.76 0.022559 22.565
8.76875000 0.022553 -4.061 0.999741 -80.76 0.999741 -80.76 0.022555 22.567
8.76880000 0.022550 -4.065 0.999741 -80.76 0.999741 -80.76 0.022551 22.569
8.76885000 0.022546 -4.068 0.999741 -80.76 0.999741 -80.76 0.022548 22.571
8.76890000 0.022542 -4.071 0.999741 -80.76 0.999741 -80.76 0.022544 22.573
8.76895000 0.022538 -4.075 0.999741 -80.76 0.999741 -80.76 0.022540 22.575
8.76900000 0.022534 -4.078 0.999741 -80.76 0.999741 -80.76 0.022536 22.578
8.76905000 0.022530 -4.082 0.999741 -80.76 0.999741 -80.76 0.022532 22.580
8.76910000 0.022526 -4.085 0.999741 -80.76 0.999741 -80.76 0.022528 22.582
8.76915000 0.022522 -4.089 0.999742 -80.76 0.999742 -80.76 0.022524 22.584
8.76920000 0.022518 -4.092 0.999742 -80.76 0.999742 -80.76 0.022520 22.586
8.76925000 0.022514 -4.095 0.999742 -80.76 0.999742 -80.76 0.022516 22.588
8.76930000 0.022510 -4.099 0.999742 -80.76 0.999742 -80.76 0.022512 22.590
8.76935000 0.022506 -4.102 0.999742 -80.76 0.999742 -80.76 0.022508 22.592
8.76940000 0.022502 -4.106 0.999742 -80.77 0.999742 -80.77 0.022504 22.594
8.76945000 0.022498 -4.109 0.999742 -80.77 0.999742 -80.77 0.022500 22.596
8.76950000 0.022494 -4.113 0.999742 -80.77 0.999742 -80.77 0.022496 22.598
8.76955000 0.022490 -4.116 0.999742 -80.77 0.999742 -80.77 0.022492 22.601
8.76960000 0.022486 -4.120 0.999742 -80.77 0.999742 -80.77 0.022488 22.603
8.76965000 0.022482 -4.124 0.999742 -80.77 0.999742 -80.77 0.022484 22.605
8.76970000 0.022478 -4.127 0.999742 -80.77 0.999742 -80.77 0.022480 22.607
8.76975000 0.022474 -4.131 0.999743 -80.77 0.999743 -80.77 0.022476 22.609
8.76980000 0.022470 -4.134 0.999743 -80.77 0.999743 -80.77 0.022472 22.612
8.76985000 0.022466 -4.138 0.999743 -80.77 0.999743 -80.77 0.022468 22.614
8.76990000 0.022462 -4.142 0.999743 -80.77 0.999743 -80.77 0.022464 22.616
8.76995000 0.022458 -4.145 0.999743 -80.77 0.999743 -80.77 0.022460 22.618
8.77000000 0.022453 -4.149 0.999743 -80.77 0.999743 -80.77 0.022455 22.620
8.77005000 0.022449 -4.152 0.999743 -80.77 0.999743 -80.77 0.022451 22.623
8.77010000 0.022445 -4.156 0.999743 -80.78 0.999743 -80.78 0.022447 22.625
8.77015000 0.022441 -4.160 0.999743 -80.78 0.999743 -80.78 0.022443 22.627
8.77020000 0.022437 -4.163 0.999743 -80.78 0.999743 -80.78 0.022439 22.630
8.77025000 0.022432 -4.167 0.999743 -80.78 0.999743 -80.78 0.022434 22.632
8.77030000 0.022428 -4.171 0.999744 -80.78 0.999744 -80.78 0.022430 22.634
8.77035000 0.022424 -4.175 0.999744 -80.78 0.999744 -80.78 0.022426 22.637
8.77040000 0.022420 -4.178 0.999744 -80.78 0.999744 -80.78 0.022422 22.639
8.77045000 0.022415 -4.182 0.999744 -80.78 0.999744 -80.78 0.022417 22.641
8.77050000 0.022411 -4.186 0.999744 -80.78 0.999744 -80.78 0.022413 22.644
8.77055000 0.022407 -4.190 0.999744 -80.78 0.999744 -80.78 0.022409 22.646
8.77060000 0.022402 -4.193 0.999744 -80.78 0.999744 -80.78 0.022404 22.648
8.77065000 0.022398 -4.197 0.999744 -80.78 0.999744 -80.78 0.022400 22.651
8.77070000 0.022394 -4.201 0.999744 -80.78 0.999744 -80.78 0.022396 22.653
8.77075000 0.022389 -4.205 0.999744 -80.78 0.999744 -80.78 0.022391 22.656
8.77080000 0.022385 -4.209 0.999744 -80.79 0.999744 -80.79 0.022387 22.658
8.77085000 0.022381 -4.213 0.999745 -80.79 0.999745 -80.79 0.022383 22.661
8.77090000 0.022376 -4.217 0.999745 -80.79 0.999745 -80.79 0.022378 22.663
8.77095000 0.022372 -4.220 0.999745 -80.79 0.999745 -80.79 0.022374 22.665
8.77100000 0.022367 -4.224 0.999745 -80.79 0.999745 -80.79 0.022369 22.668
8.77105000 0.022363 -4.228 0.999745 -80.79 0.999745 -80.79 0.022365 22.670
8.77110000 0.022358 -4.232 0.999745 -80.79 0.999745 -80.79 0.022360 22.673
8.77115000 0.022354 -4.236 0.999745 -80.79 0.999745 -80.79 0.022356 22.676
8.77120000 0.022349 -4.240 0.999745 -80.79 0.999745 -80.79 0.022351 22.678
8.77125000 0.022345 -4.244 0.999745 -80.79 0.999745 -80.79 0.022347 22.681
8.77130000 0.022340 -4.248 0.999745 -80.79 0.999745 -80.79 0.022342 22.683
8.77135000 0.022335 -4.252 0.999745 -80.79 0.999745 -80.79 0.022338 22.686
8.77140000 0.022331 -4.256 0.999746 -80.79 0.999746 -80.79 0.022333 22.688
8.77145000 0.022326 -4.260 0.999746 -80.79 0.999746 -80.79 0.022328 22.691
8.77150000 0.022322 -4.264 0.999746 -80.80 0.999746 -80.80 0.022324 22.694
8.77155000 0.022317 -4.269 0.999746 -80.80 0.999746 -80.80 0.022319 22.696
8.77160000 0.022312 -4.273 0.999746 -80.80 0.999746 -80.80 0.022314 22.699
8.77165000 0.022308 -4.277 0.999746 -80.80 0.999746 -80.80 0.022310 22.702
8.77170000 0.022303 -4.281 0.999746 -80.80 0.999746 -80.80 0.022305 22.704
8.77175000 0.022298 -4.285 0.999746 -80.80 0.999746 -80.80 0.022300 22.707
8.77180000 0.022293 -4.289 0.999746 -80.80 0.999746 -80.80 0.022295 22.710
8.77185000 0.022289 -4.293 0.999746 -80.80 0.999746 -80.80 0.022291 22.713
8.77190000 0.022284 -4.298 0.999747 -80.80 0.999747 -80.80 0.022286 22.715
8.77195000 0.022279 -4.302 0.999747 -80.80 0.999747 -80.80 0.022281 22.718
8.77200000 0.022274 -4.306 0.999747 -80.80 0.999747 -80.80 0.022276 22.721
8.77205000 0.022269 -4.310 0.999747 -80.80 0.999747 -80.80 0.022271 22.724
8.77210000 0.022264 -4.315 0.999747 -80.80 0.999747 -80.80 0.022267 22.727
8.77215000 0.022260 -4.319 0.999747 -80.81 0.999747 -80.81 0.022262 22.729
8.77220000 0.022255 -4.323 0.999747 -80.81 0.999747 -80.81 0.022257 22.732
8.77225000 0.022250 -4.328 0.999747 -80.81 0.999747 -80.81 0.022252 22.735
8.77230000 0.022245 -4.332 0.999747 -80.81 0.999747 -80.81 0.022247 22.738
8.77235000 0.022240 -4.337 0.999747 -80.81 0.999747 -80.81 0.022242 22.741
8.77240000 0.022235 -4.341 0.999748 -80.81 0.999748 -80.81 0.022237 22.744
8.77245000 0.022230 -4.345 0.999748 -80.81 0.999748 -80.81 0.022232 22.747
8.77250000 0.022225 -4.350 0.999748 -80.81 0.999748 -80.81 0.022227 22.750
8.77255000 0.022220 -4.354 0.999748 -80.81 0.999748 -80.81 0.022222 22.753
8.77260000 0.022215 -4.359 0.999748 -80.81 0.999748 -80.81 0.022217 22.756
8.77265000 0.022210 -4.363 0.999748 -80.81 0.999748 -80.81 0.022212 22.759
8.77270000 0.022204 -4.368 0.999748 -80.81 0.999748 -80.81 0.022207 22.762
8.77275000 0.022199 -4.372 0.999748 -80.81 0.999748 -80.81 0.022201 22.765
8.77280000 0.022194 -4.377 0.999748 -80.82 0.999748 -80.82 0.022196 22.768
8.77285000 0.022189 -4.382 0.999748 -80.82 0.999748 -80.82 0.022191 22.771
8.77290000 0.022184 -4.386 0.999749 -80.82 0.999749 -80.82 0.022186 22.774
8.77295000 0.022178 -4.391 0.999749 -80.82 0.999749 -80.82 0.022181 22.778
8.77300000 0.022173 -4.396 0.999749 -80.82 0.999749 -80.82 0.022175 22.781
8.77305000 0.022168 -4.400 0.999749 -80.82 0.999749 -80.82 0.022170 22.784
8.77310000 0.022162 -4.405 0.999749 -80.82 0.999749 -80.82 0.022165 22.787
8.77315000 0.022157 -4.410 0.999749 -80.82 0.999749 -80.82 0.022159 22.790
8.77320000 0.022152 -4.415 0.999749 -80.82 0.999749 -80.82 0.022154 22.794
8.77325000 0.022146 -4.419 0.999749 -80.82 0.999749 -80.82 0.022149 22.797
8.77330000 0.022141 -4.424 0.999749 -80.82 0.999749 -80.82 0.022143 22.800
8.77335000 0.022135 -4.429 0.999750 -80.82 0.999750 -80.82 0.022138 22.804
8.77340000 0.022130 -4.434 0.999750 -80.82 0.999750 -80.82 0.022132 22.807
8.77345000 0.022124 -4.439 0.999750 -80.83 0.999750 -80.83 0.022127 22.810
8.77350000 0.022119 -4.444 0.999750 -80.83 0.999750 -80.83 0.022121 22.814
8.77355000 0.022113 -4.449 0.999750 -80.83 0.999750 -80.83 0.022116 22.817
8.77360000 0.022108 -4.454 0.999750 -80.83 0.999750 -80.83 0.022110 22.821
8.77365000 0.022102 -4.459 0.999750 -80.83 0.999750 -80.83 0.022104 22.824
8.77370000 0.022097 -4.464 0.999750 -80.83 0.999750 -80.83 0.022099 22.827
8.77375000 0.022091 -4.469 0.999750 -80.83 0.999750 -80.83 0.022093 22.831
8.77380000 0.022085 -4.474 0.999751 -80.83 0.999751 -80.83 0.022087 22.835
8.77385000 0.022079 -4.479 0.999751 -80.83 0.999751 -80.83 0.022082 22.838
8.77390000 0.022074 -4.484 0.999751 -80.83 0.999751 -80.83 0.022076 22.842
8.77395000 0.022068 -4.489 0.999751 -80.83 0.999751 -80.83 0.022070 22.845
8.77400000 0.022062 -4.494 0.999751 -80.83 0.999751 -80.83 0.022064 22.849
8.77405000 0.022056 -4.500 0.999751 -80.83 0.999751 -80.83 0.022058 22.853
8.77410000 0.022050 -4.505 0.999751 -80.84 0.999751 -80.84 0.022053 22.856
8.77415000 0.022044 -4.510 0.999751 -80.84 0.999751 -80.84 0.022047 22.860
8.77420000 0.022038 -4.516 0.999751 -80.84 0.999751 -80.84 0.022041 22.864
8.77425000 0.022032 -4.521 0.999752 -80.84 0.999752 -80.84 0.022035 22.868
8.77430000 0.022026 -4.526 0.999752 -80.84 0.999752 -80.84 0.022029 22.872
8.77435000 0.022020 -4.532 0.999752 -80.84 0.999752 -80.84 0.022023 22.875
8.77440000 0.022014 -4.537 0.999752 -80.84 0.999752 -80.84 0.022017 22.879
8.77445000 0.022008 -4.543 0.999752 -80.84 0.999752 -80.84 0.022010 22.883
8.77450000 0.022002 -4.548 0.999752 -80.84 0.999752 -80.84 0.022004 22.887
8.77455000 0.021996 -4.554 0.999752 -80.84 0.999752 -80.84 0.021998 22.891
8.77460000 0.021989 -4.559 0.999752 -80.84 0.999752 -80.84 0.021992 22.895
8.77465000 0.021983 -4.565 0.999753 -80.84 0.999753 -80.84 0.021986 22.899
8.77470000 0.021977 -4.571 0.999753 -80.85 0.999753 -80.85 0.021979 22.903
8.77475000 0.021970 -4.577 0.999753 -80.85 0.999753 -80.85 0.021973 22.907
8.77480000 0.021964 -4.582 0.999753 -80.85 0.999753 -80.85 0.021967 22.911
8.77485000 0.021958 -4.588 0.999753 -80.85 0.999753 -80.85 0.021960 22.916
8.77490000 0.021951 -4.594 0.999753 -80.85 0.999753 -80.85 0.021954 22.920
8.77495000 0.021945 -4.600 0.999753 -80.85 0.999753 -80.85 0.021947 22.924
8.77500000 0.021938 -4.606 0.999753 -80.85 0.999753 -80.85 0.021941 22.928
8.77505000 0.021931 -4.612 0.999754 -80.85 0.999754 -80.85 0.021934 22.933
8.77510000 0.021925 -4.618 0.999754 -80.85 0.999754 -80.85 0.021927 22.937
8.77515000 0.021918 -4.624 0.999754 -80.85 0.999754 -80.85 0.021921 22.942
8.77520000 0.021911 -4.630 0.999754 -80.85 0.999754 -80.85 0.021914 22.946
8.77525000 0.021905 -4.636 0.999754 -80.86 0.999754 -80.86 0.021907 22.950
8.77530000 0.021898 -4.642 0.999754 -80.86 0.999754 -80.86 0.021900 22.955
8.77535000 0.021891 -4.648 0.999754 -80.86 0.999754 -80.86 0.021894 22.959
8.77540000 0.021884 -4.654 0.999755 -80.86 0.999755 -80.86 0.021887 22.964
8.77545000 0.021877 -4.661 0.999755 -80.86 0.999755 -80.86 0.021880 22.969
8.77550000 0.021870 -4.667 0.999755 -80.86 0.999755 -80.86 0.021873 22.973
8.77555000 0.021863 -4.674 0.999755 -80.86 0.999755 -80.86 0.021866 22.978
8.77560000 0.021856 -4.680 0.999755 -80.86 0.999755 -80.86 0.021859 22.983
8.77565000 0.021849 -4.686 0.999755 -80.86 0.999755 -80.86 0.021852 22.988
8.77570000 0.021842 -4.693 0.999755 -80.86 0.999755 -80.86 0.021844 22.993
8.77575000 0.021834 -4.700 0.999755 -80.86 0.999755 -80.86 0.021837 22.998
8.77580000 0.021827 -4.706 0.999756 -80.86 0.999756 -80.86 0.021830 23.002
8.77585000 0.021820 -4.713 0.999756 -80.87 0.999756 -80.87 0.021822 23.007
8.77590000 0.021812 -4.720 0.999756 -80.87 0.999756 -80.87 0.021815 23.013
8.77595000 0.021805 -4.726 0.999756 -80.87 0.999756 -80.87 0.021808 23.018
8.77600000 0.021797 -4.733 0.999756 -80.87 0.999756 -80.87 0.021800 23.023
8.77605000 0.021790 -4.740 0.999756 -80.87 0.999756 -80.87 0.021793 23.028
8.77610000 0.021782 -4.747 0.999756 -80.87 0.999756 -80.87 0.021785 23.033
8.77615000 0.021774 -4.754 0.999757 -80.87 0.999757 -80.87 0.021777 23.039
8.77620000 0.021767 -4.761 0.999757 -80.87 0.999757 -80.87 0.021770 23.044
8.77625000 0.021759 -4.769 0.999757 -80.87 0.999757 -80.87 0.021762 23.049
8.77630000 0.021751 -4.776 0.999757 -80.87 0.999757 -80.87 0.021754 23.055
8.77635000 0.021743 -4.783 0.999757 -80.87 0.999757 -80.87 0.021746 23.060
8.77640000 0.021735 -4.790 0.999757 -80.88 0.999757 -80.88 0.021738 23.066
8.77645000 0.021727 -4.798 0.999757 -80.88 0.999757 -80.88 0.021730 23.072
8.77650000 0.021719 -4.805 0.999758 -80.88 0.999758 -80.88 0.021722 23.077
8.77655000 0.021711 -4.813 0.999758 -80.88 0.999758 -80.88 0.021714 23.083
8.77660000 0.021702 -4.820 0.999758 -80.88 0.999758 -80.88 0.021705 23.089
8.77665000 0.021694 -4.828 0.999758 -80.88 0.999758 -80.88 0.021697 23.095
8.77670000 0.021686 -4.836 0.999758 -80.88 0.999758 -80.88 0.021689 23.101
8.77675000 0.021677 -4.844 0.999758 -80.88 0.999758 -80.88 0.021680 23.107
8.77680000 0.021669 -4.852 0.999759 -80.88 0.999759 -80.88 0.021672 23.113
8.77685000 0.021660 -4.859 0.999759 -80.88 0.999759 -80.88 0.021663 23.119
8.77690000 0.021651 -4.868 0.999759 -80.89 0.999759 -80.89 0.021654 23.125
8.77695000 0.021643 -4.876 0.999759 -80.89 0.999759 -80.89 0.021646 23.132
8.77700000 0.021634 -4.884 0.999759 -80.89 0.999759 -80.89 0.021637 23.138
8.77705000 0.021625 -4.892 0.999759 -80.89 0.999759 -80.89 0.021628 23.145
8.77710000 0.021616 -4.901 0.999759 -80.89 0.999759 -80.89 0.021619 23.151
8.77715000 0.021607 -4.909 0.999760 -80.89 0.999760 -80.89 0.021610 23.158
8.77720000 0.021597 -4.918 0.999760 -80.89 0.999760 -80.89 0.021601 23.164
8.77725000 0.021588 -4.926 0.999760 -80.89 0.999760 -80.89 0.021591 23.171
8.77730000 0.021579 -4.935 0.999760 -80.89 0.999760 -80.89 0.021582 23.178
8.77735000 0.021569 -4.944 0.999760 -80.89 0.999760 -80.89 0.021573 23.185
8.77740000 0.021560 -4.953 0.999760 -80.90 0.999760 -80.90 0.021563 23.192
8.77745000 0.021550 -4.962 0.999761 -80.90 0.999761 -80.90 0.021553 23.199
8.77750000 0.021540 -4.971 0.999761 -80.90 0.999761 -80.90 0.021544 23.206
8.77755000 0.021530 -4.980 0.999761 -80.90 0.999761 -80.90 0.021534 23.214
8.77760000 0.021520 -4.989 0.999761 -80.90 0.999761 -80.90 0.021524 23.221
8.77765000 0.021510 -4.999 0.999761 -80.90 0.999761 -80.90 0.021514 23.229
8.77770000 0.021500 -5.008 0.999762 -80.90 0.999762 -80.90 0.021504 23.236
8.77775000 0.021490 -5.018 0.999762 -80.90 0.999762 -80.90 0.021494 23.244
8.77780000 0.021480 -5.028 0.999762 -80.90 0.999762 -80.90 0.021483 23.252
8.77785000 0.021469 -5.038 0.999762 -80.91 0.999762 -80.91 0.021473 23.260
8.77790000 0.021458 -5.048 0.999762 -80.91 0.999762 -80.91 0.021462 23.268
8.77795000 0.021448 -5.058 0.999762 -80.91 0.999762 -80.91 0.021451 23.276
8.77800000 0.021437 -5.068 0.999763 -80.91 0.999763 -80.91 0.021441 23.284
8.77805000 0.021426 -5.078 0.999763 -80.91 0.999763 -80.91 0.021430 23.293
8.77810000 0.021415 -5.089 0.999763 -80.91 0.999763 -80.91 0.021419 23.301
8.77815000 0.021404 -5.100 0.999763 -80.91 0.999763 -80.91 0.021407 23.310
8.77820000 0.021392 -5.110 0.999763 -80.91 0.999763 -80.91 0.021396 23.319
8.77825000 0.021381 -5.121 0.999764 -80.91 0.999764 -80.91 0.021385 23.328
8.77830000 0.021369 -5.132 0.999764 -80.92 0.999764 -80.92 0.021373 23.337
8.77835000 0.021357 -5.144 0.999764 -80.92 0.999764 -80.92 0.021361 23.346
8.77840000 0.021345 -5.155 0.999764 -80.92 0.999764 -80.92 0.021349 23.355
8.77845000 0.021333 -5.166 0.999764 -80.92 0.999764 -80.92 0.021337 23.365
8.77850000 0.021321 -5.178 0.999765 -80.92 0.999765 -80.92 0.021325 23.374
8.77855000 0.021309 -5.190 0.999765 -80.92 0.999765 -80.92 0.021313 23.384
8.77860000 0.021296 -5.202 0.999765 -80.92 0.999765 -80.92 0.021300 23.394
8.77865000 0.021283 -5.214 0.999765 -80.92 0.999765 -80.92 0.021288 23.404
8.77870000 0.021271 -5.227 0.999765 -80.93 0.999765 -80.93 0.021275 23.414
8.77875000 0.021257 -5.239 0.999766 -80.93 0.999766 -80.93 0.021262 23.425
8.77880000 0.021244 -5.252 0.999766 -80.93 0.999766 -80.93 0.021249 23.435
8.77885000 0.021231 -5.265 0.999766 -80.93 0.999766 -80.93 0.021235 23.446
8.77890000 0.021217 -5.278 0.999766 -80.93 0.999766 -80.93 0.021222 23.457
8.77895000 0.021203 -5.291 0.999766 -80.93 0.999766 -80.93 0.021208 23.468
8.77900000 0.021189 -5.305 0.999767 -80.93 0.999767 -80.93 0.021194 23.480
8.77905000 0.021175 -5.319 0.999767 -80.93 0.999767 -80.93 0.021180 23.491
8.77910000 0.021161 -5.333 0.999767 -80.94 0.999767 -80.94 0.021165 23.503
8.77915000 0.021146 -5.347 0.999767 -80.94 0.999767 -80.94 0.021151 23.515
8.77920000 0.021131 -5.361 0.999768 -80.94 0.999768 -80.94 0.021136 23.527
8.77925000 0.021116 -5.376 0.999768 -80.94 0.999768 -80.94 0.021121 23.540
8.77930000 0.021101 -5.391 0.999768 -80.94 0.999768 -80.94 0.021106 23.552
8.77935000 0.021085 -5.406 0.999768 -80.94 0.999768 -80.94 0.021090 23.565
8.77940000 0.021069 -5.422 0.999768 -80.94 0.999768 -80.94 0.021074 23.579
8.77945000 0.021053 -5.437 0.999769 -80.95 0.999769 -80.95 0.021058 23.592
8.77950000 0.021037 -5.454 0.999769 -80.95 0.999769 -80.95 0.021042 23.606
8.77955000 0.021020 -5.470 0.999769 -80.95 0.999769 -80.95 0.021026 23.620
8.77960000 0.021003 -5.487 0.999769 -80.95 0.999769 -80.95 0.021009 23.634