! Sonnet Data File
! From: emgraph Version : 16.52
! From Project: 171117_Xmon_fullysym
! Data is De-embedded 
! Data File Written: 11/26/2017 21:44:46
!< HDATE 11/26/2017 17:24:49
!< MDATE 11/26/2017 17:24:49
!< PARAMS
!< Lj = 11.0
!< Gap = 1.0
!< Pwid = 2000.0
!< Airgap = 6.0
!< Width = 10.0
!< Lj1 = 9.0
!< END PARAMS
# GHZ S MA R 50.90000
8.600000000000001 0.0256189311449 -0.311602615912 0.9996685246190 -79.01132414517 0.9996685246189 -79.01132414545 0.0256198626937 22.298913319918
!< P1 F=8.6 Eeff=(6.44845572 -2.9799e-5) Z0=(50.9087207 1.17006e-4) R=0.0 C=0.0 
!< P2 F=8.6 Eeff=(6.44845572 -2.9799e-5) Z0=(50.9087207 1.17006e-4) R=0.0 C=0.0 
8.600200000000001 0.0256186207126 -0.314080249145 0.9996685324098 -79.01319734801 0.9996685324098 -79.01319734801 0.0256195523772 22.297645193164
8.600400000000000 0.0256183090751 -0.316558581431 0.9996685402061 -79.01507062271 0.9996685402061 -79.01507062271 0.0256192408353 22.296377582141
8.600600000000000 0.0256179961971 -0.319037585627 0.9996685480337 -79.01694396911 0.9996685480337 -79.01694396911 0.0256189280530 22.295110501597
8.600800000000001 0.0256176820762 -0.321517263047 0.9996685558928 -79.01881738739 0.9996685558928 -79.01881738739 0.0256186140280 22.293843952786
8.601000000000001 0.0256173667082 -0.323997616067 0.9996685637834 -79.02069087776 0.9996685637834 -79.02069087776 0.0256182987561 22.292577937411
8.601200000000000 0.0256170500901 -0.326478646279 0.9996685717056 -79.02256444041 0.9996685717056 -79.02256444041 0.0256179822343 22.291312456888
8.601400000000000 0.0256167322177 -0.328960355998 0.9996685796595 -79.02443807558 0.9996685796595 -79.02443807558 0.0256176644585 22.290047513169
8.601600000000001 0.0256164130871 -0.331442747507 0.9996685876452 -79.02631178351 0.9996685876452 -79.02631178351 0.0256173454247 22.288783107790
8.601800000000001 0.0256160926956 -0.333925822358 0.9996685956628 -79.02818556435 0.9996685956628 -79.02818556435 0.0256170251302 22.287519242063
8.602000000000000 0.0256157710382 -0.336409583234 0.9996686037123 -79.03005941840 0.9996686037123 -79.03005941840 0.0256167035700 22.286255918201
8.602200000000000 0.0256154481128 -0.338894031345 0.9996686117939 -79.03193334578 0.9996686117939 -79.03193334578 0.0256163807420 22.284993137132
8.602400000000001 0.0256151239138 -0.341379169930 0.9996686199078 -79.03380734682 0.9996686199078 -79.03380734682 0.0256160566406 22.283730901301
8.602600000000001 0.0256147984390 -0.343865000023 0.9996686280538 -79.03568142164 0.9996686280538 -79.03568142164 0.0256157312637 22.282469211686
8.602800000000000 0.0256144716840 -0.346351524258 0.9996686362323 -79.03755557051 0.9996686362323 -79.03755557051 0.0256154046068 22.281208070292
8.603000000000000 0.0256141436455 -0.348838744438 0.9996686444431 -79.03942979362 0.9996686444431 -79.03942979362 0.0256150766665 22.279947478545
8.603200000000001 0.0256138143190 -0.351326663080 0.9996686526865 -79.04130409124 0.9996686526865 -79.04130409124 0.0256147474385 22.278687438451
8.603400000000001 0.0256134837012 -0.353815281887 0.9996686609625 -79.04317846356 0.9996686609625 -79.04317846356 0.0256144169194 22.277427951633
8.603600000000000 0.0256131517883 -0.356304603110 0.9996686692713 -79.04505291079 0.9996686692713 -79.04505291079 0.0256140851055 22.276169019540
8.603800000000000 0.0256128185760 -0.358794629293 0.9996686776129 -79.04692743319 0.9996686776129 -79.04692743319 0.0256137519923 22.274910644087
8.604000000000001 0.0256124840611 -0.361285361950 0.9996686859874 -79.04880203096 0.9996686859874 -79.04880203096 0.0256134175767 22.273652826945
8.604200000000001 0.0256121482399 -0.363776803330 0.9996686943949 -79.05067670430 0.9996686943949 -79.05067670430 0.0256130818552 22.272395569504
8.604400000000000 0.0256118111072 -0.366268956313 0.9996687028355 -79.05255145353 0.9996687028355 -79.05255145353 0.0256127448223 22.271138874141
8.604600000000001 0.0256114726612 -0.368761821865 0.9996687113093 -79.05442627875 0.9996687113093 -79.05442627875 0.0256124064763 22.269882741870
8.604800000000001 0.0256111328958 -0.371255403478 0.9996687198164 -79.05630118031 0.9996687198164 -79.05630118031 0.0256120668112 22.268627174977
8.605000000000000 0.0256107918089 -0.373749702336 0.9996687283570 -79.05817615834 0.9996687283570 -79.05817615834 0.0256117258247 22.267372174754
8.605200000000000 0.0256104493954 -0.376244721105 0.9996687369310 -79.06005121314 0.9996687369310 -79.06005121314 0.0256113835120 22.266117743396
8.605400000000001 0.0256101056521 -0.378740461798 0.9996687455386 -79.06192634491 0.9996687455386 -79.06192634491 0.0256110398696 22.264863882270
8.605600000000001 0.0256097605741 -0.381236927093 0.9996687541799 -79.06380155391 0.9996687541799 -79.06380155391 0.0256106948927 22.263610593482
8.605800000000000 0.0256094141590 -0.383734118281 0.9996687628550 -79.06567684030 0.9996687628550 -79.06567684030 0.0256103485790 22.262357878307
8.606000000000000 0.0256090664007 -0.386232038792 0.9996687715640 -79.06755220443 0.9996687715640 -79.06755220443 0.0256100009224 22.261105739225
8.606200000000001 0.0256087172968 -0.388730690048 0.9996687803070 -79.06942764645 0.9996687803070 -79.06942764645 0.0256096519203 22.259854177464
8.606400000000001 0.0256083668430 -0.391230074419 0.9996687890841 -79.07130316661 0.9996687890841 -79.07130316661 0.0256093015686 22.258603194935
8.606600000000000 0.0256080150350 -0.393730194333 0.9996687978953 -79.07317876516 0.9996687978953 -79.07317876516 0.0256089498629 22.257352793440
8.606800000000000 0.0256076618685 -0.396231052015 0.9996688067409 -79.07505444234 0.9996688067409 -79.07505444234 0.0256085967990 22.256102975010
8.607000000000001 0.0256073073399 -0.398732649759 0.9996688156208 -79.07693019838 0.9996688156208 -79.07693019838 0.0256082423731 22.254853741238
8.607200000000001 0.0256069514449 -0.401234989865 0.9996688245353 -79.07880603353 0.9996688245353 -79.07880603353 0.0256078865811 22.253605093891
8.607400000000000 0.0256065941796 -0.403738074466 0.9996688334844 -79.08068194801 0.9996688334844 -79.08068194801 0.0256075294191 22.252357034907
8.607600000000000 0.0256062355397 -0.406241906004 0.9996688424681 -79.08255794208 0.9996688424681 -79.08255794208 0.0256071708827 22.251109566123
8.607800000000001 0.0256058755210 -0.408746486927 0.9996688514867 -79.08443401597 0.9996688514867 -79.08443401597 0.0256068109677 22.249862689283
8.608000000000001 0.0256055141190 -0.411251819575 0.9996688605402 -79.08631016997 0.9996688605402 -79.08631016997 0.0256064496697 22.248616406568
8.608200000000000 0.0256051513304 -0.413757905994 0.9996688696286 -79.08818640426 0.9996688696286 -79.08818640426 0.0256060869852 22.247370719403
8.608400000000001 0.0256047871505 -0.416264748641 0.9996688787522 -79.09006271912 0.9996688787522 -79.09006271912 0.0256057229098 22.246125629895
8.608600000000001 0.0256044215752 -0.418772350029 0.9996688879110 -79.09193911478 0.9996688879110 -79.09193911478 0.0256053574391 22.244881139743
8.608800000000000 0.0256040545998 -0.421280712575 0.9996688971052 -79.09381559154 0.9996688971052 -79.09381559154 0.0256049905686 22.243637251234
8.609000000000000 0.0256036862207 -0.423789838416 0.9996689063347 -79.09569214958 0.9996689063347 -79.09569214958 0.0256046222946 22.242393965844
8.609200000000001 0.0256033164334 -0.426299730082 0.9996689155999 -79.09756878918 0.9996689155999 -79.09756878918 0.0256042526128 22.241151285536
8.609400000000001 0.0256029452333 -0.428810390168 0.9996689249007 -79.09944551061 0.9996689249007 -79.09944551061 0.0256038815183 22.239909212427
8.609600000000000 0.0256025726169 -0.431321820448 0.9996689342371 -79.10132231408 0.9996689342371 -79.10132231408 0.0256035090078 22.238667748278
8.609800000000000 0.0256021985788 -0.433834024196 0.9996689436095 -79.10319919990 0.9996689436095 -79.10319919990 0.0256031350758 22.237426895147
8.610000000000001 0.0256018231156 -0.436347003147 0.9996689530178 -79.10507616827 0.9996689530178 -79.10507616827 0.0256027597190 22.236186654800
8.610200000000001 0.0256014462230 -0.438860759999 0.9996689624622 -79.10695321944 0.9996689624622 -79.10695321944 0.0256023829329 22.234947028993
8.610400000000000 0.0256010678958 -0.441375297255 0.9996689719427 -79.10883035372 0.9996689719427 -79.10883035372 0.0256020047126 22.233708020179
8.610600000000000 0.0256006881301 -0.443890617407 0.9996689814596 -79.11070757134 0.9996689814596 -79.11070757134 0.0256016250541 22.232469629994
8.610800000000001 0.0256003069213 -0.446406722941 0.9996689910129 -79.11258487257 0.9996689910129 -79.11258487257 0.0256012439526 22.231231860546
8.611000000000001 0.0255999242655 -0.448923616001 0.9996690006026 -79.11446225764 0.9996690006026 -79.11446225764 0.0256008614045 22.229994713596
8.611200000000000 0.0255995401573 -0.451441299763 0.9996690102290 -79.11633972686 0.9996690102290 -79.11633972686 0.0256004774041 22.228758191464
8.611400000000000 0.0255991545934 -0.453959775984 0.9996690198922 -79.11821728042 0.9996690198922 -79.11821728042 0.0256000919483 22.227522295716
8.611600000000001 0.0255987675689 -0.456479047353 0.9996690295921 -79.12009491863 0.9996690295921 -79.12009491863 0.0255997050321 22.226287028565
8.611800000000001 0.0255983790787 -0.458999116925 0.9996690393290 -79.12197264176 0.9996690393290 -79.12197264176 0.0255993166505 22.225052392110
8.612000000000000 0.0255979891186 -0.461519986801 0.9996690491030 -79.12385045008 0.9996690491030 -79.12385045008 0.0255989267993 22.223818388413
8.612200000000001 0.0255975976842 -0.464041659595 0.9996690589141 -79.12572834384 0.9996690589141 -79.12572834384 0.0255985354740 22.222585019418
8.612400000000001 0.0255972047708 -0.466564138007 0.9996690687626 -79.12760632331 0.9996690687626 -79.12760632331 0.0255981426700 22.221352287065
8.612600000000000 0.0255968103746 -0.469087424113 0.9996690786484 -79.12948438872 0.9996690786484 -79.12948438872 0.0255977483835 22.220120193258
8.612800000000000 0.0255964144898 -0.471611521131 0.9996690885718 -79.13136254041 0.9996690885718 -79.13136254041 0.0255973526086 22.218888740469
8.613000000000001 0.0255960171130 -0.474136431028 0.9996690985328 -79.13324077857 0.9996690985328 -79.13324077857 0.0255969553420 22.217657930240
8.613200000000001 0.0255956182383 -0.476662157161 0.9996691085315 -79.13511910356 0.9996691085315 -79.13511910356 0.0255965565777 22.216427765187
8.613400000000000 0.0255952178616 -0.479188701782 0.9996691185682 -79.13699751562 0.9996691185682 -79.13699751562 0.0255961563116 22.215198247140
8.613600000000000 0.0255948159787 -0.481716067119 0.9996691286427 -79.13887601499 0.9996691286427 -79.13887601499 0.0255957545397 22.213969378082
8.613800000000001 0.0255944125844 -0.484244256335 0.9996691387554 -79.14075460198 0.9996691387554 -79.14075460198 0.0255953512566 22.212741160279
8.614000000000001 0.0255940076743 -0.486773271777 0.9996691489063 -79.14263327684 0.9996691489063 -79.14263327684 0.0255949464580 22.211513595607
8.614200000000000 0.0255936012433 -0.489303116407 0.9996691590955 -79.14451203988 0.9996691590955 -79.14451203988 0.0255945401387 22.210286686403
8.614400000000000 0.0255931932864 -0.491833792801 0.9996691693231 -79.14639089138 0.9996691693231 -79.14639089138 0.0255941322938 22.209060435002
8.614600000000001 0.0255927837993 -0.494365303670 0.9996691795894 -79.14826983161 0.9996691795894 -79.14826983161 0.0255937229190 22.207834843174
8.614800000000001 0.0255923727777 -0.496897651341 0.9996691898943 -79.15014886081 0.9996691898943 -79.15014886081 0.0255933120099 22.206609912912
8.615000000000000 0.0255919602155 -0.499430839067 0.9996692002380 -79.15202797934 0.9996692002380 -79.15202797934 0.0255928995606 22.205385646920
8.615200000000000 0.0255915461096 -0.501964868820 0.9996692106206 -79.15390718738 0.9996692106206 -79.15390718738 0.0255924855677 22.204162046690
8.615400000000001 0.0255911304534 -0.504499744279 0.9996692210424 -79.15578648533 0.9996692210424 -79.15578648533 0.0255920700249 22.202939115022
8.615600000000001 0.0255907132428 -0.507035467702 0.9996692315032 -79.15766587342 0.9996692315032 -79.15766587342 0.0255916529278 22.201716853856
8.615800000000000 0.0255902944730 -0.509572041678 0.9996692420033 -79.15954535192 0.9996692420033 -79.15954535192 0.0255912342720 22.200495265306
8.616000000000000 0.0255898741390 -0.512109469204 0.9996692525429 -79.16142492115 0.9996692525429 -79.16142492115 0.0255908140521 22.199274351675
8.616200000000001 0.0255894522355 -0.514647753177 0.9996692631219 -79.16330458141 0.9996692631219 -79.16330458141 0.0255903922631 22.198054115179
8.616400000000001 0.0255890287590 -0.517186895709 0.9996692737407 -79.16518433290 0.9996692737407 -79.16518433290 0.0255899689012 22.196834557557
8.616600000000000 0.0255886037018 -0.519726900772 0.9996692843991 -79.16706417607 0.9996692843991 -79.16706417607 0.0255895439591 22.195615682148
8.616800000000001 0.0255881770616 -0.522267770004 0.9996692950975 -79.16894411106 0.9996692950975 -79.16894411106 0.0255891174342 22.194397490081
8.617000000000001 0.0255877488319 -0.524809507022 0.9996693058359 -79.17082413826 0.9996693058359 -79.17082413826 0.0255886893201 22.193179984131
8.617200000000000 0.0255873190082 -0.527352114392 0.9996693166145 -79.17270425792 0.9996693166145 -79.17270425792 0.0255882596122 22.191963166338
8.617400000000000 0.0255868875852 -0.529895594966 0.9996693274334 -79.17458447036 0.9996693274334 -79.17458447036 0.0255878283053 22.190747039152
8.617600000000001 0.0255864545580 -0.532439951398 0.9996693382926 -79.17646477587 0.9996693382926 -79.17646477587 0.0255873953945 22.189531604899
8.617800000000001 0.0255860199210 -0.534985187096 0.9996693491924 -79.17834517476 0.9996693491924 -79.17834517476 0.0255869608742 22.188316865796
8.618000000000000 0.0255855836694 -0.537531304763 0.9996693601328 -79.18022566734 0.9996693601328 -79.18022566734 0.0255865247395 22.187102824083
8.618200000000000 0.0255851457987 -0.540078306658 0.9996693711140 -79.18210625385 0.9996693711140 -79.18210625385 0.0255860869861 22.185889482006
8.618400000000001 0.0255847063028 -0.542626196387 0.9996693821360 -79.18398693466 0.9996693821360 -79.18398693466 0.0255856476078 22.184676842100
8.618600000000001 0.0255842651762 -0.545174977238 0.9996693931992 -79.18586771010 0.9996693931992 -79.18586771010 0.0255852065990 22.183464906701
8.618800000000000 0.0255838224151 -0.547724651118 0.9996694043035 -79.18774858038 0.9996694043035 -79.18774858038 0.0255847639560 22.182253677785
8.619000000000000 0.0255833780129 -0.550275221705 0.9996694154491 -79.18962954588 0.9996694154491 -79.18962954588 0.0255843196722 22.181043158165
8.619200000000001 0.0255829319651 -0.552826691757 0.9996694266362 -79.19151060689 0.9996694266362 -79.19151060689 0.0255838737432 22.179833349847
8.619400000000001 0.0255824842668 -0.555379063913 0.9996694378647 -79.19339176368 0.9996694378647 -79.19339176368 0.0255834261638 22.178624255174
8.619600000000000 0.0255820349118 -0.557932341574 0.9996694491350 -79.19527301661 0.9996694491350 -79.19527301661 0.0255829769282 22.177415876788
8.619800000000000 0.0255815838945 -0.560486528126 0.9996694604471 -79.19715436602 0.9996694604471 -79.19715436602 0.0255825260304 22.176208217163
8.620000000000001 0.0255811312097 -0.563041626300 0.9996694718012 -79.19903581221 0.9996694718012 -79.19903581221 0.0255820734655 22.175001278748
8.620200000000001 0.0255806768531 -0.565597638758 0.9996694831974 -79.20091735543 0.9996694831974 -79.20091735543 0.0255816192291 22.173795063392
8.620400000000000 0.0255802208189 -0.568154568444 0.9996694946357 -79.20279899603 0.9996694946357 -79.20279899603 0.0255811633154 22.172589573848
8.620600000000001 0.0255797631006 -0.570712419249 0.9996695061165 -79.20468073438 0.9996695061165 -79.20468073438 0.0255807057179 22.171384812855
8.620800000000001 0.0255793036941 -0.573271193405 0.9996695176396 -79.20656257073 0.9996695176396 -79.20656257074 0.0255802464325 22.170180782412
8.621000000000000 0.0255788425930 -0.575830894549 0.9996695292055 -79.20844450546 0.9996695292055 -79.20844450546 0.0255797854527 22.168977485322
8.621200000000000 0.0255783797927 -0.578391525429 0.9996695408141 -79.21032653883 0.9996695408141 -79.21032653883 0.0255793227741 22.167774923549
8.621400000000001 0.0255779152868 -0.580953089323 0.9996695524655 -79.21220867121 0.9996695524655 -79.21220867121 0.0255788583902 22.166573100193
8.621600000000001 0.0255774490697 -0.583515589686 0.9996695641601 -79.21409090294 0.9996695641601 -79.21409090294 0.0255783922954 22.165372017468
8.621800000000000 0.0255769811360 -0.586079029447 0.9996695758978 -79.21597323434 0.9996695758978 -79.21597323434 0.0255779244843 22.164171678088
8.622000000000000 0.0255765114812 -0.588643411159 0.9996695876788 -79.21785566566 0.9996695876788 -79.21785566566 0.0255774549524 22.162972083921
8.622200000000001 0.0255760400981 -0.591208738864 0.9996695995033 -79.21973819733 0.9996695995033 -79.21973819733 0.0255769836925 22.161773238297
8.622400000000001 0.0255755669822 -0.593775015140 0.9996696113713 -79.22162082962 0.9996696113713 -79.22162082962 0.0255765107002 22.160575143203
8.622600000000000 0.0255750921268 -0.596342243836 0.9996696232831 -79.22350356291 0.9996696232831 -79.22350356291 0.0255760359687 22.159377801486
8.622800000000000 0.0255746155271 -0.598910427475 0.9996696352388 -79.22538639750 0.9996696352388 -79.22538639750 0.0255755594931 22.158181215654
8.623000000000001 0.0255741371766 -0.601479569982 0.9996696472385 -79.22726933375 0.9996696472385 -79.22726933375 0.0255750812671 22.156985388236
8.623200000000001 0.0255736570706 -0.604049673703 0.9996696592822 -79.22915237196 0.9996696592822 -79.22915237196 0.0255746012859 22.155790321800
8.623400000000000 0.0255731752021 -0.606620742867 0.9996696713704 -79.23103551252 0.9996696713704 -79.23103551252 0.0255741195425 22.154596019037
8.623600000000000 0.0255726915666 -0.609192779950 0.9996696835029 -79.23291875571 0.9996696835029 -79.23291875571 0.0255736360325 22.153402482242
8.623800000000001 0.0255722061568 -0.611765789061 0.9996696956801 -79.23480210195 0.9996696956801 -79.23480210195 0.0255731507484 22.152209714555
8.624000000000001 0.0255717189681 -0.614339772811 0.9996697079020 -79.23668555151 0.9996697079020 -79.23668555151 0.0255726636857 22.151017718201
8.624200000000000 0.0255712299941 -0.616914734644 0.9996697201687 -79.23856910477 0.9996697201687 -79.23856910477 0.0255721748381 22.149826496083
8.624400000000001 0.0255707392287 -0.619490678202 0.9996697324804 -79.24045276208 0.9996697324804 -79.24045276208 0.0255716841995 22.148636050761
8.624600000000001 0.0255702466657 -0.622067607055 0.9996697448374 -79.24233652381 0.9996697448374 -79.24233652381 0.0255711917635 22.147446385046
8.624800000000000 0.0255697523008 -0.624645523533 0.9996697572397 -79.24422039021 0.9996697572397 -79.24422039021 0.0255706975260 22.146257500983
8.625000000000000 0.0255692561258 -0.627224432193 0.9996697696874 -79.24610436177 0.9996697696874 -79.24610436177 0.0255702014786 22.145069402287
8.625200000000001 0.0255687581367 -0.629804335466 0.9996697821807 -79.24798843871 0.9996697821807 -79.24798843871 0.0255697036176 22.143882090569
8.625400000000001 0.0255682583265 -0.632385237102 0.9996697947197 -79.24987262146 0.9996697947197 -79.24987262146 0.0255692039357 22.142695569355
8.625600000000000 0.0255677566885 -0.634967141109 0.9996698073048 -79.25175691040 0.9996698073048 -79.25175691040 0.0255687024264 22.141509841242
8.625800000000000 0.0255672532174 -0.637550050369 0.9996698199358 -79.25364130584 0.9996698199358 -79.25364130584 0.0255681990843 22.140324908862
8.626000000000001 0.0255667479068 -0.640133968546 0.9996698326131 -79.25552580816 0.9996698326131 -79.25552580816 0.0255676939031 22.139140774979
8.626200000000001 0.0255662407510 -0.642718898726 0.9996698453367 -79.25741041769 0.9996698453367 -79.25741041769 0.0255671868770 22.137957442380
8.626400000000000 0.0255657317435 -0.645304844732 0.9996698581068 -79.25929513482 0.9996698581068 -79.25929513482 0.0255666779996 22.136774913813
8.626600000000000 0.0255652208778 -0.647891810319 0.9996698709236 -79.26117995992 0.9996698709236 -79.26117995992 0.0255661672642 22.135593192107
8.626800000000001 0.0255647081477 -0.650479798874 0.9996698837872 -79.26306489337 0.9996698837872 -79.26306489337 0.0255656546648 22.134412280248
8.627000000000001 0.0255641935481 -0.653068813361 0.9996698966978 -79.26494993547 0.9996698966978 -79.26494993547 0.0255651401962 22.133232180495
8.627200000000000 0.0255636770709 -0.655658858153 0.9996699096555 -79.26683508667 0.9996699096555 -79.26683508667 0.0255646238505 22.132052896489
8.627400000000000 0.0255631587114 -0.658249936323 0.9996699226606 -79.26872034727 0.9996699226606 -79.26872034727 0.0255641056227 22.130874430310
8.627600000000001 0.0255626384623 -0.660842051617 0.9996699357130 -79.27060571769 0.9996699357130 -79.27060571769 0.0255635855057 22.129696785318
8.627800000000001 0.0255621163167 -0.663435207986 0.9996699488131 -79.27249119833 0.9996699488131 -79.27249119833 0.0255630634925 22.128519964658
8.628000000000000 0.0255615922703 -0.666029408151 0.9996699619609 -79.27437678945 0.9996699619609 -79.27437678945 0.0255625395789 22.127343970118
8.628200000000001 0.0255610663144 -0.668624656694 0.9996699751566 -79.27626249157 0.9996699751566 -79.27626249157 0.0255620137562 22.126168805856
8.628400000000001 0.0255605384439 -0.671220956770 0.9996699884004 -79.27814830497 0.9996699884004 -79.27814830497 0.0255614860191 22.124994473984
8.628600000000000 0.0255600086516 -0.673818312330 0.9996700016925 -79.28003423009 0.9996700016925 -79.28003423009 0.0255609563606 22.123820977861
8.628800000000000 0.0255594769311 -0.676416727068 0.9996700150329 -79.28192026729 0.9996700150329 -79.28192026729 0.0255604247743 22.122648320196
8.629000000000001 0.0255589432762 -0.679016204393 0.9996700284219 -79.28380641694 0.9996700284219 -79.28380641694 0.0255598912540 22.121476504038
8.629200000000001 0.0255584076805 -0.681616748104 0.9996700418597 -79.28569267942 0.9996700418597 -79.28569267942 0.0255593557932 22.120305532138
8.629400000000000 0.0255578701366 -0.684218362221 0.9996700553463 -79.28757905516 0.9996700553463 -79.28757905516 0.0255588183846 22.119135407892
8.629600000000000 0.0255573306383 -0.686821050338 0.9996700688819 -79.28946554453 0.9996700688819 -79.28946554453 0.0255582790219 22.117966134112
8.629800000000001 0.0255567891783 -0.689424816625 0.9996700824668 -79.29135214795 0.9996700824668 -79.29135214795 0.0255577376979 22.116797713900
8.630000000000001 0.0255562457512 -0.692029664091 0.9996700961010 -79.29323886574 0.9996700961010 -79.29323886574 0.0255571944071 22.115630150052
8.630200000000000 0.0255557003497 -0.694635597035 0.9996701097849 -79.29512569834 0.9996701097849 -79.29512569834 0.0255566491423 22.114463445569
8.630400000000000 0.0255551529667 -0.697242619073 0.9996701235183 -79.29701264615 0.9996701235183 -79.29701264615 0.0255561018964 22.113297603968
8.630600000000001 0.0255546035953 -0.699850734509 0.9996701373016 -79.29889970958 0.9996701373016 -79.29889970958 0.0255555526625 22.112132628046
8.630800000000001 0.0255540522287 -0.702459947242 0.9996701511351 -79.30078688903 0.9996701511351 -79.30078688903 0.0255550014337 22.110968520861
8.631000000000000 0.0255534988605 -0.705070260627 0.9996701650188 -79.30267418488 0.9996701650188 -79.30267418488 0.0255544482037 22.109805285633
8.631200000000000 0.0255529434840 -0.707681678696 0.9996701789528 -79.30456159753 0.9996701789528 -79.30456159753 0.0255538929657 22.108642925196
8.631400000000001 0.0255523860911 -0.710294205804 0.9996701929373 -79.30644912743 0.9996701929373 -79.30644912743 0.0255533357118 22.107481443284
8.631600000000001 0.0255518266760 -0.712907845484 0.9996702069727 -79.30833677495 0.9996702069727 -79.30833677495 0.0255527764360 22.106320842371
8.631800000000000 0.0255512652313 -0.715522601768 0.9996702210589 -79.31022454050 0.9996702210589 -79.31022454050 0.0255522151310 22.105161126039
8.632000000000000 0.0255507017500 -0.718138478808 0.9996702351961 -79.31211242451 0.9996702351961 -79.31211242451 0.0255516517898 22.104002297240
8.632200000000001 0.0255501362252 -0.720755480396 0.9996702493847 -79.31400042738 0.9996702493847 -79.31400042738 0.0255510864054 22.102844359278
8.632400000000001 0.0255495686491 -0.723373610985 0.9996702636246 -79.31588854956 0.9996702636246 -79.31588854956 0.0255505189701 22.101687315529
8.632600000000000 0.0255489990158 -0.725992873869 0.9996702779161 -79.31777679140 0.9996702779161 -79.31777679140 0.0255499494781 22.100531168785
8.632800000000001 0.0255484273165 -0.728613274142 0.9996702922594 -79.31966515343 0.9996702922594 -79.31966515343 0.0255493779204 22.099375923032
8.633000000000001 0.0255478535455 -0.731234814922 0.9996703066547 -79.32155363596 0.9996703066547 -79.32155363596 0.0255488042914 22.098221580820
8.633200000000000 0.0255472776954 -0.733857500734 0.9996703211021 -79.32344223944 0.9996703211021 -79.32344223944 0.0255482285837 22.097068145374
8.633400000000000 0.0255466997576 -0.736481336066 0.9996703356018 -79.32533096438 0.9996703356018 -79.32533096438 0.0255476507887 22.095915620801
8.633600000000001 0.0255461197264 -0.739106324391 0.9996703501540 -79.32721981110 0.9996703501540 -79.32721981110 0.0255470709007 22.094764009517
8.633800000000001 0.0255455375939 -0.741732470039 0.9996703647588 -79.32910878008 0.9996703647588 -79.32910878008 0.0255464889117 22.093613315405
8.634000000000000 0.0255449533531 -0.744359777241 0.9996703794164 -79.33099787172 0.9996703794164 -79.33099787172 0.0255459048149 22.092463541244
8.634200000000000 0.0255443669942 -0.746988251191 0.9996703941272 -79.33288708659 0.9996703941272 -79.33288708659 0.0255453186004 22.091314691695
8.634400000000001 0.0255437785136 -0.749617894437 0.9996704088911 -79.33477642492 0.9996704088911 -79.33477642492 0.0255447302646 22.090166768284
8.634600000000001 0.0255431879017 -0.752248711988 0.9996704237084 -79.33666588726 0.9996704237084 -79.33666588726 0.0255441397978 22.089019775610
8.634800000000000 0.0255425951506 -0.754880708550 0.9996704385793 -79.33855547407 0.9996704385793 -79.33855547407 0.0255435471922 22.087873717041
8.635000000000000 0.0255420002549 -0.757513887168 0.9996704535039 -79.34044518568 0.9996704535039 -79.34044518568 0.0255429524426 22.086728595063
8.635200000000001 0.0255414032040 -0.760148253974 0.9996704684825 -79.34233502271 0.9996704684825 -79.34233502271 0.0255423555380 22.085584414406
8.635400000000001 0.0255408039924 -0.762783811774 0.9996704835152 -79.34422498547 0.9996704835152 -79.34422498547 0.0255417564733 22.084441177803
8.635600000000000 0.0255402026120 -0.765420565714 0.9996704986024 -79.34611507445 0.9996704986024 -79.34611507445 0.0255411552400 22.083298888586
8.635800000000000 0.0255395990550 -0.768058519671 0.9996705137439 -79.34800529011 0.9996705137439 -79.34800529011 0.0255405518306 22.082157550718
8.636000000000001 0.0255389933135 -0.770697678420 0.9996705289402 -79.34989563290 0.9996705289402 -79.34989563290 0.0255399462372 22.081017167525
8.636200000000001 0.0255383853805 -0.773338045954 0.9996705441913 -79.35178610324 0.9996705441913 -79.35178610324 0.0255393384527 22.079877742225
8.636400000000000 0.0255377752469 -0.775979627457 0.9996705594976 -79.35367670166 0.9996705594976 -79.35367670166 0.0255387284679 22.078739278952
8.636600000000001 0.0255371629060 -0.778622426721 0.9996705748591 -79.35556742856 0.9996705748591 -79.35556742856 0.0255381162762 22.077601780758
8.636800000000001 0.0255365483499 -0.781266448170 0.9996705902761 -79.35745828440 0.9996705902761 -79.35745828440 0.0255375018699 22.076465251315
8.637000000000000 0.0255359315696 -0.783911696936 0.9996706057488 -79.35934926970 0.9996706057488 -79.35934926970 0.0255368852397 22.075329694612
8.637200000000000 0.0255353125582 -0.786558177206 0.9996706212773 -79.36124038488 0.9996706212773 -79.36124038488 0.0255362663788 22.074195113756
8.637400000000001 0.0255346913072 -0.789205893507 0.9996706368619 -79.36313163044 0.9996706368619 -79.36313163044 0.0255356452788 22.073061512708
8.637600000000001 0.0255340678092 -0.791854850222 0.9996706525028 -79.36502300680 0.9996706525028 -79.36502300680 0.0255350219322 22.071928894802
8.637800000000000 0.0255334420552 -0.794505052406 0.9996706682001 -79.36691451449 0.9996706682001 -79.36691451449 0.0255343963300 22.070797264130
8.638000000000000 0.0255328140378 -0.797156504128 0.9996706839540 -79.36880615395 0.9996706839540 -79.36880615395 0.0255337684650 22.069666624178
8.638200000000001 0.0255321837491 -0.799809210262 0.9996706997648 -79.37069792565 0.9996706997648 -79.37069792565 0.0255331383290 22.068536978333
8.638400000000001 0.0255315511802 -0.802463175678 0.9996707156326 -79.37258983011 0.9996707156326 -79.37258983011 0.0255325059133 22.067408330732
8.638600000000000 0.0255309163226 -0.805118405232 0.9996707315577 -79.37448186782 0.9996707315577 -79.37448186782 0.0255318712093 22.066280685228
8.638800000000000 0.0255302791698 -0.807774902713 0.9996707475403 -79.37637403918 0.9996707475403 -79.37637403918 0.0255312342104 22.065154044899
8.639000000000001 0.0255296397113 -0.810432673841 0.9996707635804 -79.37826634478 0.9996707635804 -79.37826634478 0.0255305949065 22.064028414435
8.639200000000001 0.0255289979406 -0.813091722689 0.9996707796785 -79.38015878502 0.9996707796785 -79.38015878502 0.0255299532906 22.062903796774
8.639400000000000 0.0255283538479 -0.815752054576 0.9996707958346 -79.38205136047 0.9996707958346 -79.38205136047 0.0255293093534 22.061780196366
8.639600000000000 0.0255277074252 -0.818413674307 0.9996708120491 -79.38394407161 0.9996708120491 -79.38394407161 0.0255286630865 22.060657616852
8.639800000000001 0.0255270586646 -0.821076586193 0.9996708283220 -79.38583691889 0.9996708283220 -79.38583691889 0.0255280144821 22.059536061982
8.640000000000001 0.0255264075572 -0.823740795354 0.9996708446536 -79.38772990284 0.9996708446536 -79.38772990284 0.0255273635314 22.058415535644
8.640200000000000 0.0255257540939 -0.826406306909 0.9996708610440 -79.38962302399 0.9996708610440 -79.38962302399 0.0255267102253 22.057296042149