! Sonnet Data File
! From: emgraph Version : 16.52
! From Project: 171117_Xmon_fullysym
! Data is De-embedded 
! Data File Written: 11/26/2017 21:44:45
!< HDATE 11/26/2017 17:24:49
!< MDATE 11/26/2017 17:24:49
!< PARAMS
!< Lj = 11.0
!< Gap = 1.0
!< Pwid = 2000.0
!< Airgap = 6.0
!< Width = 10.0
!< Lj1 = 8.8
!< END PARAMS
# GHZ S MA R 50.90000
8.600000000000001 0.0256280991248 -0.307471130635 0.9996682897630 -79.01079065407 0.9996682897629 -79.01079065435 0.0256290303561 22.295844775965
!< P1 F=8.6 Eeff=(6.44845572 -2.9799e-5) Z0=(50.9087207 1.17006e-4) R=0.0 C=0.0 
!< P2 F=8.6 Eeff=(6.44845572 -2.9799e-5) Z0=(50.9087207 1.17006e-4) R=0.0 C=0.0 
8.600200000000001 0.0256277901307 -0.309947965354 0.9996682975194 -79.01266377276 0.9996682975194 -79.01266377276 0.0256287214779 22.294576019970
8.600400000000000 0.0256274799269 -0.312425500936 0.9996683052813 -79.01453696356 0.9996683052813 -79.01453696356 0.0256284113696 22.293307781011
8.600600000000000 0.0256271684780 -0.314903710277 0.9996683130748 -79.01641022634 0.9996683130748 -79.01641022634 0.0256281000165 22.292040073853
8.600800000000001 0.0256268557814 -0.317382594705 0.9996683208998 -79.01828356125 0.9996683208998 -79.01828356125 0.0256277874161 22.290772899762
8.601000000000001 0.0256265418332 -0.319862156601 0.9996683287565 -79.02015696854 0.9996683287565 -79.02015696854 0.0256274735641 22.289506260443
8.601200000000000 0.0256262266303 -0.322342397563 0.9996683366450 -79.02203044837 0.9996683366450 -79.02203044837 0.0256271584576 22.288240157321
8.601400000000000 0.0256259101684 -0.324823319920 0.9996683445652 -79.02390400100 0.9996683445652 -79.02390400100 0.0256268420923 22.286974592355
8.601600000000001 0.0256255924436 -0.327304925962 0.9996683525174 -79.02577762665 0.9996683525174 -79.02577762665 0.0256265244644 22.285709567085
8.601800000000001 0.0256252734532 -0.329787217246 0.9996683605016 -79.02765132550 0.9996683605016 -79.02765132550 0.0256262055711 22.284445082831
8.602000000000000 0.0256249531922 -0.332270196468 0.9996683685179 -79.02952509783 0.9996683685179 -79.02952509783 0.0256258854073 22.283181141812
8.602200000000000 0.0256246316584 -0.334753864844 0.9996683765664 -79.03139894376 0.9996683765664 -79.03139894376 0.0256255639711 22.281917744960
8.602400000000001 0.0256243088461 -0.337238225625 0.9996683846472 -79.03327286363 0.9996683846472 -79.03327286363 0.0256252412565 22.280654894732
8.602600000000001 0.0256239847535 -0.339723279851 0.9996683927604 -79.03514685756 0.9996683927604 -79.03514685756 0.0256249172618 22.279392592108
8.602800000000000 0.0256236593757 -0.342209030166 0.9996684009061 -79.03702092582 0.9996684009061 -79.03702092582 0.0256245919821 22.278130839100
8.603000000000000 0.0256233327096 -0.344695478381 0.9996684090844 -79.03889506860 0.9996684090844 -79.03889506860 0.0256242654144 22.276869637142
8.603200000000001 0.0256230047506 -0.347182627025 0.9996684172954 -79.04076928618 0.9996684172954 -79.04076928618 0.0256239375540 22.275608988247
8.603400000000001 0.0256226754953 -0.349670477805 0.9996684255390 -79.04264357873 0.9996684255390 -79.04264357873 0.0256236083976 22.274348894044
8.603600000000000 0.0256223449402 -0.352159032983 0.9996684338156 -79.04451794648 0.9996684338156 -79.04451794648 0.0256232779415 22.273089355987
8.603800000000000 0.0256220130808 -0.354648295115 0.9996684421252 -79.04639238970 0.9996684421252 -79.04639238970 0.0256229461813 22.271830375998
8.604000000000001 0.0256216799137 -0.357138265721 0.9996684504677 -79.04826690856 0.9996684504677 -79.04826690856 0.0256226131137 22.270571955758
8.604200000000001 0.0256213454355 -0.359628947059 0.9996684588435 -79.05014150328 0.9996684588435 -79.05014150328 0.0256222787352 22.269314096660
8.604400000000000 0.0256210096408 -0.362120342022 0.9996684672525 -79.05201617418 0.9996684672525 -79.05201617418 0.0256219430404 22.268056801091
8.604600000000001 0.0256206725277 -0.364612451578 0.9996684756948 -79.05389092137 0.9996684756948 -79.05389092137 0.0256216060274 22.266800070068
8.604800000000001 0.0256203340903 -0.367105279236 0.9996684841706 -79.05576574518 0.9996684841706 -79.05576574518 0.0256212676904 22.265543905888
8.605000000000000 0.0256199943262 -0.369598826186 0.9996684926799 -79.05764064577 0.9996684926799 -79.05764064577 0.0256209280269 22.264288309847
8.605200000000000 0.0256196532306 -0.372093095102 0.9996685012228 -79.05951562342 0.9996685012228 -79.05951562342 0.0256205870321 22.263033284147
8.605400000000001 0.0256193108000 -0.374588088007 0.9996685097995 -79.06139067832 0.9996685097995 -79.06139067832 0.0256202447026 22.261778830163
8.605600000000001 0.0256189670296 -0.377083807590 0.9996685184100 -79.06326581076 0.9996685184100 -79.06326581076 0.0256199010335 22.260524950007
8.605800000000000 0.0256186219170 -0.379580255152 0.9996685270545 -79.06514102089 0.9996685270545 -79.06514102089 0.0256195560224 22.259271644964
8.606000000000000 0.0256182754561 -0.382077434131 0.9996685357330 -79.06701630905 0.9996685357330 -79.06701630905 0.0256192096632 22.258018917517
8.606200000000001 0.0256179276444 -0.384575345957 0.9996685444456 -79.06889167541 0.9996685444456 -79.06889167541 0.0256188619534 22.256766768902
8.606400000000001 0.0256175784775 -0.387073993012 0.9996685531925 -79.07076712021 0.9996685531925 -79.07076712021 0.0256185128888 22.255515201039
8.606600000000000 0.0256172279513 -0.389573377733 0.9996685619737 -79.07264264370 0.9996685619737 -79.07264264370 0.0256181624649 22.254264215735
8.606800000000000 0.0256168760614 -0.392073502352 0.9996685707893 -79.07451824613 0.9996685707893 -79.07451824613 0.0256178106777 22.253013815028
8.607000000000001 0.0256165228040 -0.394574369176 0.9996685796395 -79.07639392772 0.9996685796395 -79.07639392772 0.0256174575232 22.251764000520
8.607200000000001 0.0256161681750 -0.397075980517 0.9996685885244 -79.07826968873 0.9996685885244 -79.07826968873 0.0256171029973 22.250514773984
8.607400000000000 0.0256158121704 -0.399578338513 0.9996685974439 -79.08014552938 0.9996685974439 -79.08014552938 0.0256167470961 22.249266137367
8.607600000000000 0.0256154547858 -0.402081445614 0.9996686063983 -79.08202144993 0.9996686063983 -79.08202144993 0.0256163898151 22.248018092509
8.607800000000001 0.0256150960171 -0.404585304288 0.9996686153877 -79.08389745062 0.9996686153877 -79.08389745062 0.0256160311503 22.246770641166
8.608000000000001 0.0256147358598 -0.407089916875 0.9996686244122 -79.08577353172 0.9996686244122 -79.08577353172 0.0256156710970 22.245523785525
8.608200000000000 0.0256143743104 -0.409595285431 0.9996686334717 -79.08764969343 0.9996686334717 -79.08764969343 0.0256153096519 22.244277527016
8.608400000000001 0.0256140113643 -0.412101412430 0.9996686425666 -79.08952593601 0.9996686425666 -79.08952593601 0.0256149468104 22.243031867755
8.608600000000001 0.0256136470174 -0.414608300390 0.9996686516968 -79.09140225973 0.9996686516968 -79.09140225973 0.0256145825682 22.241786809450
8.608800000000000 0.0256132812649 -0.417115951741 0.9996686608625 -79.09327866485 0.9996686608625 -79.09327866485 0.0256142169207 22.240542354394
8.609000000000000 0.0256129141032 -0.419624368626 0.9996686700638 -79.09515515158 0.9996686700638 -79.09515515158 0.0256138498643 22.239298504069
8.609200000000001 0.0256125455278 -0.422133553590 0.9996686793008 -79.09703172018 0.9996686793008 -79.09703172018 0.0256134813945 22.238055260448
8.609400000000001 0.0256121755341 -0.424643509235 0.9996686885736 -79.09890837094 0.9996686885736 -79.09890837094 0.0256131115065 22.236812625653
8.609600000000000 0.0256118041185 -0.427154237346 0.9996686978823 -79.10078510406 0.9996686978823 -79.10078510406 0.0256127401969 22.235570601456
8.609800000000000 0.0256114312757 -0.429665741206 0.9996687072270 -79.10266191986 0.9996687072270 -79.10266191986 0.0256123674603 22.234329189920
8.610000000000001 0.0256110570021 -0.432178022564 0.9996687166078 -79.10453881853 0.9996687166078 -79.10453881853 0.0256119932933 22.233088392820
8.610200000000001 0.0256106812935 -0.434691084125 0.9996687260248 -79.10641580034 0.9996687260248 -79.10641580034 0.0256116176914 22.231848211918
8.610400000000000 0.0256103041446 -0.437204928405 0.9996687354782 -79.10829286558 0.9996687354782 -79.10829286558 0.0256112406496 22.230608649677
8.610600000000000 0.0256099255516 -0.439719557902 0.9996687449680 -79.11017001448 0.9996687449680 -79.11017001448 0.0256108621638 22.229369707737
8.610800000000001 0.0256095455098 -0.442234975119 0.9996687544944 -79.11204724733 0.9996687544944 -79.11204724733 0.0256104822294 22.228131388220
8.611000000000001 0.0256091640153 -0.444751182205 0.9996687640574 -79.11392456435 0.9996687640574 -79.11392456435 0.0256101008427 22.226893692888
8.611200000000000 0.0256087810626 -0.447268182350 0.9996687736573 -79.11580196586 0.9996687736573 -79.11580196586 0.0256097179979 22.225656624075
8.611400000000000 0.0256083966484 -0.449785977319 0.9996687832940 -79.11767945205 0.9996687832940 -79.11767945205 0.0256093336920 22.224420183349
8.611600000000001 0.0256080107678 -0.452304569814 0.9996687929677 -79.11955702321 0.9996687929677 -79.11955702321 0.0256089479199 22.223184372935
8.611800000000001 0.0256076234157 -0.454823962900 0.9996688026785 -79.12143467965 0.9996688026785 -79.12143467965 0.0256085606766 22.221949194938
8.612000000000000 0.0256072345879 -0.457344158690 0.9996688124266 -79.12331242161 0.9996688124266 -79.12331242161 0.0256081719578 22.220714651431
8.612200000000001 0.0256068442799 -0.459865159805 0.9996688222120 -79.12519024935 0.9996688222120 -79.12519024935 0.0256077817591 22.219480744360
8.612400000000001 0.0256064524870 -0.462386968959 0.9996688320348 -79.12706816314 0.9996688320348 -79.12706816314 0.0256073900757 22.218247475679
8.612600000000000 0.0256060592054 -0.464909588241 0.9996688418952 -79.12894616322 0.9996688418952 -79.12894616322 0.0256069969039 22.217014847298
8.612800000000000 0.0256056644293 -0.467433020873 0.9996688517933 -79.13082424992 0.9996688517933 -79.13082424992 0.0256066022378 22.215782861696
8.613000000000001 0.0256052681552 -0.469957268839 0.9996688617292 -79.13270242345 0.9996688617292 -79.13270242345 0.0256062060740 22.214551520424
8.613200000000001 0.0256048703771 -0.472482335507 0.9996688717030 -79.13458068416 0.9996688717030 -79.13458068416 0.0256058084065 22.213320826108
8.613400000000000 0.0256044710911 -0.475008223139 0.9996688817149 -79.13645903228 0.9996688817149 -79.13645903228 0.0256054092313 22.212090780584
8.613600000000000 0.0256040702928 -0.477534933970 0.9996688917649 -79.13833746805 0.9996688917649 -79.13833746805 0.0256050085441 22.210861385843
8.613800000000001 0.0256036679770 -0.480062471184 0.9996689018531 -79.14021599181 0.9996689018531 -79.14021599181 0.0256046063397 22.209632644163
8.614000000000001 0.0256032641394 -0.482590837128 0.9996689119797 -79.14209460379 0.9996689119797 -79.14209460379 0.0256042026137 22.208404557421
8.614200000000000 0.0256028587747 -0.485120034782 0.9996689221449 -79.14397330431 0.9996689221449 -79.14397330431 0.0256037973608 22.207177127970
8.614400000000000 0.0256024518780 -0.487650066734 0.9996689323486 -79.14585209365 0.9996689323486 -79.14585209365 0.0256033905763 22.205950358151
8.614600000000001 0.0256020434449 -0.490180935702 0.9996689425911 -79.14773097207 0.9996689425911 -79.14773097207 0.0256029822556 22.204724249740
8.614800000000001 0.0256016334710 -0.492712644029 0.9996689528724 -79.14960993983 0.9996689528724 -79.14960993983 0.0256025723945 22.203498804741
8.615000000000000 0.0256012219505 -0.495245194976 0.9996689631927 -79.15148899727 0.9996689631927 -79.15148899727 0.0256021609869 22.202274025864
8.615200000000000 0.0256008088799 -0.497778590526 0.9996689735521 -79.15336814460 0.9996689735521 -79.15336814460 0.0256017480295 22.201049914612
8.615400000000001 0.0256003942527 -0.500312834376 0.9996689839507 -79.15524738219 0.9996689839507 -79.15524738219 0.0256013335159 22.199826473795
8.615600000000001 0.0255999780648 -0.502847928791 0.9996689943887 -79.15712671029 0.9996689943887 -79.15712671029 0.0256009174417 22.198603705360
8.615800000000000 0.0255995603115 -0.505383876371 0.9996690048661 -79.15900612918 0.9996690048661 -79.15900612918 0.0256004998025 22.197381611428
8.616000000000000 0.0255991409875 -0.507920680124 0.9996690153831 -79.16088563916 0.9996690153831 -79.16088563916 0.0256000805928 22.196160194312
8.616200000000001 0.0255987200877 -0.510458342962 0.9996690259398 -79.16276524054 0.9996690259398 -79.16276524054 0.0255996598076 22.194939456237
8.616400000000001 0.0255982976084 -0.512996867005 0.9996690365363 -79.16464493353 0.9996690365363 -79.16464493353 0.0255992374431 22.193719398947
8.616600000000000 0.0255978735421 -0.515536256245 0.9996690471728 -79.16652471857 0.9996690471728 -79.16652471857 0.0255988134920 22.192500025801
8.616800000000001 0.0255974478862 -0.518076512323 0.9996690578494 -79.16840459581 0.9996690578494 -79.16840459581 0.0255983879516 22.191281337924
8.617000000000001 0.0255970206344 -0.520617638873 0.9996690685661 -79.17028456563 0.9996690685661 -79.17028456563 0.0255979608155 22.190063338108
8.617200000000000 0.0255965917820 -0.523159638470 0.9996690793233 -79.17216462830 0.9996690793233 -79.17216462830 0.0255975320791 22.188846028397
8.617400000000000 0.0255961613238 -0.525702513979 0.9996690901208 -79.17404478413 0.9996690901208 -79.17404478413 0.0255971017371 22.187629411253
8.617600000000001 0.0255957292548 -0.528246268069 0.9996691009589 -79.17592503340 0.9996691009589 -79.17592503340 0.0255966697847 22.186413489011
8.617800000000001 0.0255952955694 -0.530790904159 0.9996691118378 -79.17780537645 0.9996691118378 -79.17780537645 0.0255962362162 22.185198263896
8.618000000000000 0.0255948602627 -0.533336424964 0.9996691227575 -79.17968581357 0.9996691227575 -79.17968581357 0.0255958010266 22.183983738159
8.618200000000000 0.0255944233303 -0.535882832752 0.9996691337181 -79.18156634501 0.9996691337181 -79.18156634501 0.0255953642117 22.182769914051
8.618400000000001 0.0255939847661 -0.538430131145 0.9996691447198 -79.18344697113 0.9996691447198 -79.18344697113 0.0255949257652 22.181556794121
8.618600000000001 0.0255935445643 -0.540978323446 0.9996691557628 -79.18532769227 0.9996691557628 -79.18532769227 0.0255944856814 22.180344380711
8.618800000000000 0.0255931027213 -0.543527411568 0.9996691668471 -79.18720850865 0.9996691668471 -79.18720850865 0.0255940439568 22.179132675808
8.619000000000000 0.0255926592306 -0.546077399206 0.9996691779728 -79.18908942065 0.9996691779728 -79.18908942065 0.0255936005846 22.177921682232
8.619200000000001 0.0255922140874 -0.548628289131 0.9996691891403 -79.19097042854 0.9996691891403 -79.19097042854 0.0255931555603 22.176711402002
8.619400000000001 0.0255917672868 -0.551180083990 0.9996692003494 -79.19285153262 0.9996692003494 -79.19285153262 0.0255927088788 22.175501837467
8.619600000000000 0.0255913188227 -0.553732787201 0.9996692116004 -79.19473273323 0.9996692116004 -79.19473273323 0.0255922605343 22.174292991281
8.619800000000000 0.0255908686894 -0.556286402163 0.9996692228935 -79.19661403073 0.9996692228935 -79.19661403073 0.0255918105208 22.173084865927
8.620000000000001 0.0255904168817 -0.558840931621 0.9996692342287 -79.19849542541 0.9996692342287 -79.19849542541 0.0255913588331 22.171877463862
8.620200000000001 0.0255899633952 -0.561396378246 0.9996692456062 -79.20037691753 0.9996692456062 -79.20037691753 0.0255909054670 22.170670786948
8.620400000000000 0.0255895082242 -0.563952744995 0.9996692570260 -79.20225850743 0.9996692570260 -79.20225850743 0.0255904504166 22.169464837942
8.620600000000001 0.0255890513621 -0.566510035775 0.9996692684885 -79.20414019549 0.9996692684885 -79.20414019549 0.0255899936755 22.168259619597
8.620800000000001 0.0255885928047 -0.569068252830 0.9996692799936 -79.20602198196 0.9996692799936 -79.20602198196 0.0255895352394 22.167055133922
8.621000000000000 0.0255881325456 -0.571627399810 0.9996692915415 -79.20790386721 0.9996692915415 -79.20790386721 0.0255890751019 22.165851383729
8.621200000000000 0.0255876705803 -0.574187479475 0.9996693031324 -79.20978585152 0.9996693031324 -79.20978585152 0.0255886132584 22.164648370988
8.621400000000001 0.0255872069022 -0.576748495117 0.9996693147663 -79.21166793526 0.9996693147663 -79.21166793526 0.0255881497025 22.163446098812
8.621600000000001 0.0255867415059 -0.579310450207 0.9996693264436 -79.21355011876 0.9996693264436 -79.21355011876 0.0255876844287 22.162244569429
8.621800000000000 0.0255862743856 -0.581873347687 0.9996693381642 -79.21543240234 0.9996693381642 -79.21543240234 0.0255872174312 22.161043785558
8.622000000000000 0.0255858055371 -0.584437190117 0.9996693499282 -79.21731478627 0.9996693499282 -79.21731478627 0.0255867487058 22.159843749074
8.622200000000001 0.0255853349531 -0.587001981560 0.9996693617360 -79.21919727098 0.9996693617360 -79.21919727098 0.0255862782452 22.158644463325
8.622400000000001 0.0255848626289 -0.589567724604 0.9996693735875 -79.22107985672 0.9996693735875 -79.22107985672 0.0255858060448 22.157445930302
8.622600000000000 0.0255843885580 -0.592134423113 0.9996693854830 -79.22296254389 0.9996693854830 -79.22296254389 0.0255853320979 22.156248152865
8.622800000000000 0.0255839127354 -0.594702079622 0.9996693974225 -79.22484533279 0.9996693974225 -79.22484533279 0.0255848563997 22.155051133530
8.623000000000001 0.0255834351547 -0.597270698072 0.9996694094063 -79.22672822378 0.9996694094063 -79.22672822378 0.0255843789436 22.153854874838
8.623200000000001 0.0255829558110 -0.599840280822 0.9996694214343 -79.22861121716 0.9996694214343 -79.22861121716 0.0255838997250 22.152659379369
8.623400000000000 0.0255824746975 -0.602410832114 0.9996694335070 -79.23049431332 0.9996694335070 -79.23049431332 0.0255834187368 22.151464649820
8.623600000000000 0.0255819918095 -0.604982354438 0.9996694456242 -79.23237751254 0.9996694456242 -79.23237751254 0.0255829359744 22.150270688498
8.623800000000001 0.0255815071396 -0.607554851918 0.9996694577863 -79.23426081524 0.9996694577863 -79.23426081524 0.0255824514305 22.149077498555
8.624000000000001 0.0255810206833 -0.610128327179 0.9996694699933 -79.23614422171 0.9996694699933 -79.23614422171 0.0255819651004 22.147885082224
8.624200000000000 0.0255805324342 -0.612702783679 0.9996694822453 -79.23802773232 0.9996694822453 -79.23802773232 0.0255814769779 22.146693442422
8.624400000000001 0.0255800423861 -0.615278225072 0.9996694945426 -79.23991134742 0.9996694945426 -79.23991134742 0.0255809870568 22.145502581715
8.624600000000001 0.0255795505328 -0.617854654949 0.9996695068853 -79.24179506738 0.9996695068853 -79.24179506738 0.0255804953307 22.144312502929
8.624800000000000 0.0255790568699 -0.620432075646 0.9996695192735 -79.24367889247 0.9996695192735 -79.24367889247 0.0255800017954 22.143123208116
8.625000000000000 0.0255785613892 -0.623010491739 0.9996695317074 -79.24556282315 0.9996695317074 -79.24556282315 0.0255795064426 22.141934701005
8.625200000000001 0.0255780640868 -0.625589905673 0.9996695441871 -79.24744685967 0.9996695441871 -79.24744685967 0.0255790092684 22.140746983215
8.625400000000001 0.0255775649554 -0.628170321210 0.9996695567127 -79.24933100244 0.9996695567127 -79.24933100244 0.0255785102656 22.139560058283
8.625600000000000 0.0255770639885 -0.630751742375 0.9996695692845 -79.25121525185 0.9996695692845 -79.25121525185 0.0255780094276 22.138373928816
8.625800000000000 0.0255765611806 -0.633334172067 0.9996695819025 -79.25309960823 0.9996695819025 -79.25309960823 0.0255775067490 22.137188597463
8.626000000000001 0.0255760565254 -0.635917613960 0.9996695945671 -79.25498407194 0.9996695945671 -79.25498407194 0.0255770022234 22.136004066992
8.626200000000001 0.0255755500171 -0.638502071156 0.9996696072781 -79.25686864332 0.9996696072781 -79.25686864332 0.0255764958450 22.134820340204
8.626400000000000 0.0255750416493 -0.641087547495 0.9996696200358 -79.25875332277 0.9996696200358 -79.25875332277 0.0255759876074 22.133637419858
8.626600000000000 0.0255745314152 -0.643674046745 0.9996696328405 -79.26063811064 0.9996696328405 -79.26063811064 0.0255754775040 22.132455308792
8.626800000000001 0.0255740193088 -0.646261572308 0.9996696456923 -79.26252300733 0.9996696456923 -79.26252300733 0.0255749655284 22.131274010007
8.627000000000001 0.0255735053248 -0.648850127168 0.9996696585912 -79.26440801313 0.9996696585912 -79.26440801313 0.0255744516757 22.130093525770
8.627200000000000 0.0255729894553 -0.651439715706 0.9996696715374 -79.26629312850 0.9996696715374 -79.26629312850 0.0255739359378 22.128913859735
8.627400000000000 0.0255724716952 -0.654030341012 0.9996696845312 -79.26817835375 0.9996696845312 -79.26817835375 0.0255734183097 22.127735013991
8.627600000000001 0.0255719520376 -0.656622006849 0.9996696975727 -79.27006368929 0.9996696975727 -79.27006368929 0.0255728987844 22.126556991911
8.627800000000001 0.0255714304752 -0.659214717182 0.9996697106619 -79.27194913552 0.9996697106619 -79.27194913552 0.0255723773547 22.125379796652
8.628000000000000 0.0255709070039 -0.661808474752 0.9996697237992 -79.27383469271 0.9996697237992 -79.27383469271 0.0255718540164 22.124203430015
8.628200000000001 0.0255703816148 -0.664403284148 0.9996697369845 -79.27572036137 0.9996697369845 -79.27572036137 0.0255713287607 22.123027896165
8.628400000000001 0.0255698543028 -0.666999148546 0.9996697502182 -79.27760614181 0.9996697502182 -79.27760614181 0.0255708015824 22.121853197228
8.628600000000000 0.0255693250608 -0.669596071915 0.9996697635004 -79.27949203443 0.9996697635004 -79.27949203443 0.0255702724744 22.120679336575
8.628800000000000 0.0255687938822 -0.672194057960 0.9996697768312 -79.28137803963 0.9996697768312 -79.28137803963 0.0255697414304 22.119506316926
8.629000000000001 0.0255682607609 -0.674793110104 0.9996697902107 -79.28326415776 0.9996697902107 -79.28326415776 0.0255692084438 22.118334141341
8.629200000000001 0.0255677256904 -0.677393232168 0.9996698036393 -79.28515038921 0.9996698036393 -79.28515038921 0.0255686735084 22.117162812584
8.629400000000000 0.0255671886632 -0.679994428185 0.9996698171169 -79.28703673442 0.9996698171169 -79.28703673442 0.0255681366168 22.115992334062
8.629600000000000 0.0255666496732 -0.682596701766 0.9996698306438 -79.28892319374 0.9996698306438 -79.28892319374 0.0255675977626 22.114822708603
8.629800000000001 0.0255661087130 -0.685200057097 0.9996698442202 -79.29080976761 0.9996698442202 -79.29080976761 0.0255670569387 22.113653939314
8.630000000000001 0.0255655657771 -0.687804497200 0.9996698578461 -79.29269645636 0.9996698578461 -79.29269645636 0.0255665141393 22.112486029008
8.630200000000000 0.0255650208582 -0.690410026392 0.9996698715219 -79.29458326040 0.9996698715219 -79.29458326040 0.0255659693574 22.111318980694
8.630400000000000 0.0255644739492 -0.693016648306 0.9996698852475 -79.29647018016 0.9996698852476 -79.29647018016 0.0255654225858 22.110152797906
8.630600000000001 0.0255639250432 -0.695624367263 0.9996698990234 -79.29835721604 0.9996698990234 -79.29835721604 0.0255648738175 22.108987483450
8.630800000000001 0.0255633741333 -0.698233187180 0.9996699128495 -79.30024436846 0.9996699128495 -79.30024436846 0.0255643230456 22.107823040398
8.631000000000000 0.0255628212130 -0.700843111423 0.9996699267260 -79.30213163777 0.9996699267260 -79.30213163777 0.0255637702638 22.106659471981
8.631200000000000 0.0255622662757 -0.703454144047 0.9996699406532 -79.30401902440 0.9996699406532 -79.30401902440 0.0255632154653 22.105496781046
8.631400000000001 0.0255617093131 -0.706066289418 0.9996699546312 -79.30590652879 0.9996699546312 -79.30590652879 0.0255626586420 22.104334971339
8.631600000000001 0.0255611503196 -0.708679551088 0.9996699686601 -79.30779415131 0.9996699686601 -79.30779415131 0.0255620997880 22.103174045345
8.631800000000000 0.0255605892876 -0.711293933107 0.9996699827402 -79.30968189239 0.9996699827402 -79.30968189239 0.0255615388960 22.102014006662
8.632000000000000 0.0255600262100 -0.713909439643 0.9996699968716 -79.31156975244 0.9996699968716 -79.31156975244 0.0255609759587 22.100854858250
8.632200000000001 0.0255594610800 -0.716526074503 0.9996700110545 -79.31345773187 0.9996700110545 -79.31345773187 0.0255604109694 22.099696603432
8.632400000000001 0.0255588938897 -0.719143842162 0.9996700252891 -79.31534583113 0.9996700252891 -79.31534583113 0.0255598439202 22.098539245590
8.632600000000000 0.0255583246332 -0.721762745927 0.9996700395754 -79.31723405058 0.9996700395754 -79.31723405058 0.0255592748053 22.097382787533
8.632800000000001 0.0255577533016 -0.724382790910 0.9996700539138 -79.31912239075 0.9996700539138 -79.31912239075 0.0255587036155 22.096227233259
8.633000000000001 0.0255571798892 -0.727003980248 0.9996700683044 -79.32101085195 0.9996700683044 -79.32101085195 0.0255581303454 22.095072585332
8.633200000000000 0.0255566043886 -0.729626318482 0.9996700827474 -79.32289943463 0.9996700827474 -79.32289943463 0.0255575549874 22.093918846985
8.633400000000000 0.0255560267910 -0.732249810118 0.9996700972430 -79.32478813931 0.9996700972430 -79.32478813931 0.0255569775329 22.092766022346
8.633600000000001 0.0255554470909 -0.734874458648 0.9996701117913 -79.32667696630 0.9996701117913 -79.32667696630 0.0255563979763 22.091614113837
8.633800000000001 0.0255548652802 -0.737500268413 0.9996701263924 -79.32856591609 0.9996701263924 -79.32856591609 0.0255558163093 22.090463125357
8.634000000000000 0.0255542813518 -0.740127243669 0.9996701410467 -79.33045498908 0.9996701410467 -79.33045498908 0.0255552325253 22.089313059696
8.634200000000000 0.0255536952961 -0.742755389625 0.9996701557543 -79.33234418585 0.9996701557543 -79.33234418585 0.0255546466142 22.088163921533
8.634400000000001 0.0255531071093 -0.745384708847 0.9996701705154 -79.33423350662 0.9996701705154 -79.33423350662 0.0255540585724 22.087015712404
8.634600000000001 0.0255525167817 -0.748015206366 0.9996701853301 -79.33612295195 0.9996701853301 -79.33612295195 0.0255534683903 22.085868436922
8.634800000000000 0.0255519243054 -0.750646886900 0.9996702001986 -79.33801252231 0.9996702001986 -79.33801252231 0.0255528760599 22.084722098470
8.635000000000000 0.0255513296752 -0.753279753513 0.9996702151211 -79.33990221801 0.9996702151211 -79.33990221801 0.0255522815759 22.083576699543
8.635200000000001 0.0255507328800 -0.755913812360 0.9996702300979 -79.34179203969 0.9996702300979 -79.34179203969 0.0255516849274 22.082432244890
8.635400000000001 0.0255501339147 -0.758549066260 0.9996702451290 -79.34368198766 0.9996702451290 -79.34368198766 0.0255510861092 22.081288737254
8.635600000000000 0.0255495327709 -0.761185520379 0.9996702602148 -79.34557206242 0.9996702602148 -79.34557206242 0.0255504851129 22.080146179982
8.635800000000000 0.0255489294409 -0.763823178615 0.9996702753553 -79.34746226440 0.9996702753553 -79.34746226440 0.0255498819307 22.079004577051
8.636000000000001 0.0255483239166 -0.766462045757 0.9996702905508 -79.34935259409 0.9996702905508 -79.34935259409 0.0255492765548 22.077863931801
8.636200000000001 0.0255477161912 -0.769102125819 0.9996703058014 -79.35124305189 0.9996703058014 -79.35124305189 0.0255486689781 22.076724247461
8.636400000000000 0.0255471062552 -0.771743424008 0.9996703211075 -79.35313363835 0.9996703211075 -79.35313363835 0.0255480591913 22.075585528185
8.636600000000001 0.0255464941022 -0.774385944128 0.9996703364690 -79.35502435386 0.9996703364690 -79.35502435386 0.0255474471878 22.074447777034
8.636800000000001 0.0255458797241 -0.777029690623 0.9996703518863 -79.35691519888 0.9996703518863 -79.35691519888 0.0255468329598 22.073310997693
8.637000000000000 0.0255452631119 -0.779674668652 0.9996703673595 -79.35880617395 0.9996703673595 -79.35880617395 0.0255462164980 22.072175194173
8.637200000000000 0.0255446442585 -0.782320882411 0.9996703828889 -79.36069727947 0.9996703828889 -79.36069727947 0.0255455977955 22.071040369588
8.637400000000001 0.0255440231556 -0.784968336450 0.9996703984746 -79.36258851594 0.9996703984746 -79.36258851594 0.0255449768439 22.069906527914
8.637600000000001 0.0255433997957 -0.787617035171 0.9996704141168 -79.36447988381 0.9996704141168 -79.36447988381 0.0255443536357 22.068773672500
8.637800000000000 0.0255427741697 -0.790266983651 0.9996704298158 -79.36637138360 0.9996704298158 -79.36637138360 0.0255437281618 22.067641807457
8.638000000000000 0.0255421462702 -0.792918185975 0.9996704455716 -79.36826301575 0.9996704455716 -79.36826301575 0.0255431004149 22.066510936280
8.638200000000001 0.0255415160892 -0.795570647036 0.9996704613845 -79.37015478073 0.9996704613845 -79.37015478073 0.0255424703869 22.065381062373
8.638400000000001 0.0255408836177 -0.798224371728 0.9996704772549 -79.37204667905 0.9996704772549 -79.37204667905 0.0255418380690 22.064252189886
8.638600000000000 0.0255402488473 -0.800879364927 0.9996704931827 -79.37393871124 0.9996704931827 -79.37393871124 0.0255412034525 22.063124322689
8.638800000000000 0.0255396117713 -0.803535630435 0.9996705091683 -79.37583087766 0.9996705091683 -79.37583087766 0.0255405665308 22.061997463872
8.639000000000001 0.0255389723794 -0.806193173998 0.9996705252118 -79.37772317894 0.9996705252118 -79.37772317894 0.0255399272937 22.060871618143
8.639200000000001 0.0255383306648 -0.808851999708 0.9996705413135 -79.37961561546 0.9996705413135 -79.37961561546 0.0255392857344 22.059746788454
8.639400000000000 0.0255376866178 -0.811512112903 0.9996705574735 -79.38150818779 0.9996705574735 -79.38150818779 0.0255386418431 22.058622979269
8.639600000000000 0.0255370402303 -0.814173518409 0.9996705736921 -79.38340089643 0.9996705736921 -79.38340089643 0.0255379956117 22.057500194246
8.639800000000001 0.0255363914943 -0.816836220554 0.9996705899695 -79.38529374182 0.9996705899695 -79.38529374182 0.0255373470323 22.056378437146
8.640000000000001 0.0255357404010 -0.819500224488 0.9996706063058 -79.38718672449 0.9996706063058 -79.38718672449 0.0255366960961 22.055257711879
8.640200000000000 0.0255350869412 -0.822165535340 0.9996706227013 -79.38907984499 0.9996706227013 -79.38907984499 0.0255360427938 22.054138022765