! Sonnet Data File
! From: emgraph Version : 16.52
! From Project: 171117_Xmon_fullysym
! Data is De-embedded 
! Data File Written: 11/26/2017 21:44:45
!< HDATE 11/26/2017 17:24:49
!< MDATE 11/26/2017 17:24:49
!< PARAMS
!< Lj = 11.0
!< Gap = 1.0
!< Pwid = 2000.0
!< Airgap = 6.0
!< Width = 10.0
!< Lj1 = 8.0
!< END PARAMS
# GHZ S MA R 50.90000
8.600000000000001 0.0256534645232 -0.296053610246 0.9996676393597 -79.00931464389 0.9996676393596 -79.00931464417 0.0256543949390 22.287368898029
!< P1 F=8.6 Eeff=(6.44845572 -2.9799e-5) Z0=(50.9087207 1.17006e-4) R=0.0 C=0.0 
!< P2 F=8.6 Eeff=(6.44845572 -2.9799e-5) Z0=(50.9087207 1.17006e-4) R=0.0 C=0.0 
8.600200000000001 0.0256531575796 -0.298529107854 0.9996676470701 -79.01118764197 0.9996676470701 -79.01118764197 0.0256540881116 22.286099049997
8.600400000000000 0.0256528494126 -0.301005311919 0.9996676547864 -79.01306071297 0.9996676547864 -79.01306071297 0.0256537800405 22.284829723069
8.600600000000000 0.0256525399866 -0.303482195448 0.9996676625347 -79.01493385675 0.9996676625347 -79.01493385675 0.0256534707107 22.283560932055
8.600800000000001 0.0256522292990 -0.305959759792 0.9996676703148 -79.01680707347 0.9996676703148 -79.01680707347 0.0256531601195 22.282292678237
8.601000000000001 0.0256519173457 -0.308438007356 0.9996676781271 -79.01868036338 0.9996676781271 -79.01868036338 0.0256528482627 22.281024963336
8.601200000000000 0.0256516041237 -0.310916939755 0.9996676859714 -79.02055372666 0.9996676859714 -79.02055372666 0.0256525351375 22.279757788793
8.601400000000000 0.0256512896286 -0.313396559345 0.9996676938480 -79.02242716355 0.9996676938480 -79.02242716355 0.0256522207394 22.278491156583
8.601600000000001 0.0256509738565 -0.315876868444 0.9996677017569 -79.02430067429 0.9996677017569 -79.02430067429 0.0256519050645 22.277225068271
8.601800000000001 0.0256506568045 -0.318357868621 0.9996677096982 -79.02617425905 0.9996677096982 -79.02617425905 0.0256515881099 22.275959525184
8.602000000000000 0.0256503384676 -0.320839562604 0.9996677176720 -79.02804791812 0.9996677176720 -79.02804791812 0.0256512698707 22.274694529565
8.602200000000000 0.0256500188437 -0.323321951625 0.9996677256783 -79.02992165163 0.9996677256783 -79.02992165163 0.0256509503446 22.273430082357
8.602400000000001 0.0256496979269 -0.325805038970 0.9996677337175 -79.03179545991 0.9996677337175 -79.03179545991 0.0256506295259 22.272166186040
8.602600000000001 0.0256493757152 -0.328288825693 0.9996677417894 -79.03366934309 0.9996677417894 -79.03366934309 0.0256503074126 22.270902841611
8.602800000000000 0.0256490522040 -0.330773314465 0.9996677498941 -79.03554330145 0.9996677498941 -79.03554330145 0.0256499839999 22.269640051097
8.603000000000000 0.0256487273900 -0.333258507115 0.9996677580319 -79.03741733517 0.9996677580319 -79.03741733517 0.0256496592846 22.268377815946
8.603200000000001 0.0256484012684 -0.335744406208 0.9996677662028 -79.03929144453 0.9996677662028 -79.03929144453 0.0256493332620 22.267116138197
8.603400000000001 0.0256480738360 -0.338231013464 0.9996677744068 -79.04116562972 0.9996677744068 -79.04116562972 0.0256490059288 22.265855019493
8.603600000000000 0.0256477450891 -0.340718331171 0.9996677826440 -79.04303989097 0.9996677826440 -79.04303989097 0.0256486772813 22.264594461304
8.603800000000000 0.0256474150230 -0.343206361913 0.9996677909147 -79.04491422853 0.9996677909147 -79.04491422853 0.0256483473148 22.263334465569
8.604000000000001 0.0256470836345 -0.345695107229 0.9996677992188 -79.04678864261 0.9996677992188 -79.04678864261 0.0256480160262 22.262075033991
8.604200000000001 0.0256467509200 -0.348184569404 0.9996678075564 -79.04866313341 0.9996678075564 -79.04866313341 0.0256476834118 22.260816167979
8.604400000000000 0.0256464168741 -0.350674751359 0.9996678159278 -79.05053770126 0.9996678159278 -79.05053770126 0.0256473494661 22.259557869935
8.604600000000001 0.0256460814948 -0.353165654078 0.9996678243328 -79.05241234626 0.9996678243328 -79.05241234626 0.0256470141874 22.258300140900
8.604800000000001 0.0256457447763 -0.355657281105 0.9996678327718 -79.05428706877 0.9996678327718 -79.05428706877 0.0256466775696 22.257042983184
8.605000000000000 0.0256454067159 -0.358149633646 0.9996678412447 -79.05616186892 0.9996678412447 -79.05616186892 0.0256463396102 22.255786398103
8.605200000000000 0.0256450673089 -0.360642714402 0.9996678497517 -79.05803674702 0.9996678497517 -79.05803674702 0.0256460003044 22.254530387877
8.605400000000001 0.0256447265517 -0.363136525425 0.9996678582928 -79.05991170325 0.9996678582928 -79.05991170325 0.0256456596486 22.253274953903
8.605600000000001 0.0256443844395 -0.365631069423 0.9996678668682 -79.06178673792 0.9996678668682 -79.06178673792 0.0256453176381 22.252020098306
8.605800000000000 0.0256440409697 -0.368126347725 0.9996678754778 -79.06366185116 0.9996678754778 -79.06366185116 0.0256449742702 22.250765822390
8.606000000000000 0.0256436961362 -0.370622363796 0.9996678841221 -79.06553704333 0.9996678841221 -79.06553704333 0.0256446295389 22.249512128662
8.606200000000001 0.0256433499366 -0.373119119088 0.9996678928008 -79.06741231459 0.9996678928008 -79.06741231459 0.0256442834416 22.248259018373
8.606400000000001 0.0256430023662 -0.375616616009 0.9996679015142 -79.06928766519 0.9996679015142 -79.06928766519 0.0256439359739 22.247006493460
8.606600000000000 0.0256426534210 -0.378114857022 0.9996679102624 -79.07116309539 0.9996679102624 -79.07116309539 0.0256435871315 22.245754555750
8.606800000000000 0.0256423030965 -0.380613844384 0.9996679190454 -79.07303860543 0.9996679190454 -79.07303860543 0.0256432369101 22.244503207304
8.607000000000001 0.0256419513889 -0.383113580433 0.9996679278635 -79.07491419556 0.9996679278635 -79.07491419556 0.0256428853057 22.243252449740
8.607200000000001 0.0256415982940 -0.385614067500 0.9996679367166 -79.07678986601 0.9996679367166 -79.07678986601 0.0256425323143 22.242002284844
8.607400000000000 0.0256412438076 -0.388115307748 0.9996679456048 -79.07866561702 0.9996679456048 -79.07866561702 0.0256421779318 22.240752714591
8.607600000000000 0.0256408879255 -0.390617303657 0.9996679545284 -79.08054144884 0.9996679545284 -79.08054144884 0.0256418221537 22.239503740838
8.607800000000001 0.0256405306434 -0.393120057723 0.9996679634874 -79.08241736174 0.9996679634874 -79.08241736174 0.0256414649758 22.238255365358
8.608000000000001 0.0256401719566 -0.395623572309 0.9996679724818 -79.08429335597 0.9996679724818 -79.08429335597 0.0256411063935 22.237007590360
8.608200000000000 0.0256398118618 -0.398127849500 0.9996679815119 -79.08616943175 0.9996679815119 -79.08616943175 0.0256407464034 22.235760417295
8.608400000000001 0.0256394503542 -0.400632891787 0.9996679905776 -79.08804558934 0.9996679905776 -79.08804558934 0.0256403850009 22.234513848291
8.608600000000001 0.0256390874296 -0.403138701726 0.9996679996792 -79.08992182899 0.9996679996792 -79.08992182899 0.0256400221815 22.233267885081
8.608800000000000 0.0256387230833 -0.405645281774 0.9996680088167 -79.09179815099 0.9996680088167 -79.09179815099 0.0256396579406 22.232022529982
8.609000000000000 0.0256383573115 -0.408152634090 0.9996680179903 -79.09367455555 0.9996680179902 -79.09367455555 0.0256392922746 22.230777784486
8.609200000000001 0.0256379901098 -0.410660761256 0.9996680271999 -79.09555104294 0.9996680271999 -79.09555104294 0.0256389251788 22.229533650592
8.609400000000001 0.0256376214733 -0.413169665896 0.9996680364459 -79.09742761343 0.9996680364459 -79.09742761343 0.0256385566485 22.228290130441
8.609600000000000 0.0256372513985 -0.415679349824 0.9996680457281 -79.09930426723 0.9996680457281 -79.09930426723 0.0256381866801 22.227047225829
8.609800000000000 0.0256368798799 -0.418189816350 0.9996680550469 -79.10118100468 0.9996680550469 -79.10118100468 0.0256378152683 22.225804938830
8.610000000000001 0.0256365069141 -0.420701067248 0.9996680644022 -79.10305782596 0.9996680644022 -79.10305782596 0.0256374424094 22.224563271248
8.610200000000001 0.0256361324965 -0.423213105254 0.9996680737942 -79.10493473135 0.9996680737942 -79.10493473135 0.0256370680990 22.223322224858
8.610400000000000 0.0256357566221 -0.425725932911 0.9996680832230 -79.10681172114 0.9996680832230 -79.10681172114 0.0256366923321 22.222081802151
8.610600000000000 0.0256353792867 -0.428239552741 0.9996680926887 -79.10868879557 0.9996680926887 -79.10868879557 0.0256363151044 22.220842004780
8.610800000000001 0.0256350004858 -0.430753967282 0.9996681021915 -79.11056595492 0.9996681021915 -79.11056595492 0.0256359364114 22.219602834895
8.611000000000001 0.0256346202152 -0.433269178699 0.9996681117313 -79.11244319942 0.9996681117313 -79.11244319942 0.0256355562490 22.218364294271
8.611200000000000 0.0256342384695 -0.435785190227 0.9996681213084 -79.11432052940 0.9996681213084 -79.11432052940 0.0256351746118 22.217126385271
8.611400000000000 0.0256338552454 -0.438302003641 0.9996681309229 -79.11619794506 0.9996681309229 -79.11619794506 0.0256347914963 22.215889109474
8.611600000000001 0.0256334705377 -0.440819621680 0.9996681405748 -79.11807544667 0.9996681405748 -79.11807544667 0.0256344068977 22.214652469131
8.611800000000001 0.0256330843415 -0.443338047443 0.9996681502644 -79.11995303456 0.9996681502644 -79.11995303456 0.0256340208106 22.213416466374
8.612000000000000 0.0256326966523 -0.445857283064 0.9996681599916 -79.12183070897 0.9996681599916 -79.12183070897 0.0256336332310 22.212181103288
8.612200000000001 0.0256323074656 -0.448377331193 0.9996681697566 -79.12370847016 0.9996681697566 -79.12370847016 0.0256332441541 22.210946381842
8.612400000000001 0.0256319167768 -0.450898194577 0.9996681795596 -79.12558631842 0.9996681795596 -79.12558631842 0.0256328535752 22.209712304018
8.612600000000000 0.0256315245818 -0.453419875326 0.9996681894006 -79.12746425398 0.9996681894006 -79.12746425398 0.0256324614905 22.208478871739
8.612800000000000 0.0256311308748 -0.455942376698 0.9996681992798 -79.12934227718 0.9996681992798 -79.12934227718 0.0256320678941 22.207246087508
8.613000000000001 0.0256307356524 -0.458465700702 0.9996682091972 -79.13122038822 0.9996682091972 -79.13122038822 0.0256316727824 22.206013952898
8.613200000000001 0.0256303389084 -0.460989850740 0.9996682191531 -79.13309858746 0.9996682191531 -79.13309858746 0.0256312761495 22.204782470559
8.613400000000000 0.0256299406387 -0.463514829102 0.9996682291475 -79.13497687514 0.9996682291475 -79.13497687514 0.0256308779912 22.203551642346
8.613600000000000 0.0256295408392 -0.466040638045 0.9996682391804 -79.13685525152 0.9996682391804 -79.13685525152 0.0256304783032 22.202321470272
8.613800000000001 0.0256291395043 -0.468567280794 0.9996682492522 -79.13873371691 0.9996682492522 -79.13873371691 0.0256300770801 22.201091956636
8.614000000000001 0.0256287366297 -0.471094759718 0.9996682593628 -79.14061227156 0.9996682593628 -79.14061227156 0.0256296743177 22.199863103339
8.614200000000000 0.0256283322101 -0.473623077831 0.9996682695124 -79.14249091579 0.9996682695124 -79.14249091579 0.0256292700105 22.198634912756
8.614400000000000 0.0256279262405 -0.476152237747 0.9996682797011 -79.14436964989 0.9996682797011 -79.14436964989 0.0256288641536 22.197407387251
8.614600000000001 0.0256275187164 -0.478682242221 0.9996682899291 -79.14624847412 0.9996682899291 -79.14624847412 0.0256284567424 22.196180528621
8.614800000000001 0.0256271096335 -0.481213093617 0.9996683001964 -79.14812738874 0.9996683001964 -79.14812738874 0.0256280477727 22.194954338890
8.615000000000000 0.0256266989857 -0.483744795232 0.9996683105032 -79.15000639411 0.9996683105032 -79.15000639411 0.0256276372384 22.193728820794
8.615200000000000 0.0256262867696 -0.486277349076 0.9996683208496 -79.15188549043 0.9996683208496 -79.15188549043 0.0256272251360 22.192503975854
8.615400000000001 0.0256258729785 -0.488810758884 0.9996683312357 -79.15376467808 0.9996683312357 -79.15376467808 0.0256268114590 22.191279806911
8.615600000000001 0.0256254576083 -0.491345026946 0.9996683416616 -79.15564395731 0.9996683416616 -79.15564395731 0.0256263962030 22.190056315929
8.615800000000000 0.0256250406542 -0.493880155890 0.9996683521275 -79.15752332840 0.9996683521275 -79.15752332840 0.0256259793635 22.188833505053
8.616000000000000 0.0256246221109 -0.496416148762 0.9996683626335 -79.15940279167 0.9996683626335 -79.15940279167 0.0256255609351 22.187611376619
8.616200000000001 0.0256242019732 -0.498953008500 0.9996683731798 -79.16128234741 0.9996683731798 -79.16128234741 0.0256251409125 22.186389932872
8.616400000000001 0.0256237802372 -0.501490737253 0.9996683837663 -79.16316199585 0.9996683837663 -79.16316199585 0.0256247192920 22.185169175581
8.616600000000000 0.0256233568955 -0.504029339056 0.9996683943934 -79.16504173743 0.9996683943934 -79.16504173743 0.0256242960660 22.183949108134
8.616800000000001 0.0256229319455 -0.506568815566 0.9996684050610 -79.16692157232 0.9996684050610 -79.16692157232 0.0256238712320 22.182729731673
8.617000000000001 0.0256225053805 -0.509109170464 0.9996684157693 -79.16880150088 0.9996684157693 -79.16880150088 0.0256234447833 22.181511049015
8.617200000000000 0.0256220771960 -0.511650406347 0.9996684265186 -79.17068152340 0.9996684265186 -79.17068152340 0.0256230167153 22.180293062225
8.617400000000000 0.0256216473867 -0.514192526114 0.9996684373087 -79.17256164018 0.9996684373087 -79.17256164018 0.0256225870228 22.179075773796
8.617600000000001 0.0256212159474 -0.516735532461 0.9996684481400 -79.17444185152 0.9996684481400 -79.17444185152 0.0256221557007 22.177859186078
8.617800000000001 0.0256207828726 -0.519279428853 0.9996684590125 -79.17632215775 0.9996684590125 -79.17632215775 0.0256217227433 22.176643301328
8.618000000000000 0.0256203481573 -0.521824218030 0.9996684699264 -79.17820255917 0.9996684699264 -79.17820255917 0.0256212881456 22.175428121815
8.618200000000000 0.0256199117968 -0.524369902283 0.9996684808818 -79.18008305604 0.9996684808818 -79.18008305604 0.0256208519032 22.174213649816
8.618400000000001 0.0256194737851 -0.526916485276 0.9996684918787 -79.18196364873 0.9996684918787 -79.18196364873 0.0256204140098 22.172999887904
8.618600000000001 0.0256190341165 -0.529463970352 0.9996685029175 -79.18384433756 0.9996685029175 -79.18384433756 0.0256199744597 22.171786838449
8.618800000000000 0.0256185927870 -0.532012359440 0.9996685139982 -79.18572512277 0.9996685139982 -79.18572512277 0.0256195332491 22.170574503453
8.619000000000000 0.0256181497901 -0.534561656283 0.9996685251208 -79.18760600475 0.9996685251208 -79.18760600475 0.0256190903714 22.169362885772
8.619200000000001 0.0256177051211 -0.537111863678 0.9996685362857 -79.18948698376 0.9996685362857 -79.18948698376 0.0256186458218 22.168151987441
8.619400000000001 0.0256172587749 -0.539662984300 0.9996685474928 -79.19136806011 0.9996685474928 -79.19136806011 0.0256181995954 22.166941810835
8.619600000000000 0.0256168107454 -0.542215021611 0.9996685587423 -79.19324923415 0.9996685587423 -79.19324923415 0.0256177516860 22.165732358638
8.619800000000000 0.0256163610267 -0.544767979043 0.9996685700344 -79.19513050624 0.9996685700344 -79.19513050624 0.0256173020876 22.164523633356
8.620000000000001 0.0256159096135 -0.547321859370 0.9996685813692 -79.19701187668 0.9996685813692 -79.19701187668 0.0256168507952 22.163315637469
8.620200000000001 0.0256154565015 -0.549876665298 0.9996685927469 -79.19889334572 0.9996685927469 -79.19889334572 0.0256163978041 22.162108372864
8.620400000000000 0.0256150016849 -0.552432399814 0.9996686041674 -79.20077491371 0.9996686041674 -79.20077491371 0.0256159431087 22.160901842323
8.620600000000001 0.0256145451568 -0.554989066869 0.9996686156311 -79.20265658105 0.9996686156311 -79.20265658105 0.0256154867022 22.159696048628
8.620800000000001 0.0256140869132 -0.557546668730 0.9996686271380 -79.20453834797 0.9996686271380 -79.20453834797 0.0256150285805 22.158490993808
8.621000000000000 0.0256136269475 -0.560105209092 0.9996686386883 -79.20642021487 0.9996686386883 -79.20642021487 0.0256145687370 22.157286680709
8.621200000000000 0.0256131652551 -0.562664690742 0.9996686502822 -79.20830218202 0.9996686502822 -79.20830218202 0.0256141071671 22.156083111314
8.621400000000001 0.0256127018294 -0.565225117009 0.9996686619196 -79.21018424979 0.9996686619196 -79.21018424979 0.0256136438642 22.154880288773
8.621600000000001 0.0256122366647 -0.567786491404 0.9996686736009 -79.21206641852 0.9996686736009 -79.21206641852 0.0256131788226 22.153678215337
8.621800000000000 0.0256117697555 -0.570348816901 0.9996686853261 -79.21394868855 0.9996686853261 -79.21394868855 0.0256127120368 22.152476893752
8.622000000000000 0.0256113010973 -0.572912096085 0.9996686970954 -79.21583106012 0.9996686970954 -79.21583106012 0.0256122435023 22.151276325911
8.622200000000001 0.0256108306825 -0.575476333072 0.9996687089089 -79.21771353369 0.9996687089089 -79.21771353369 0.0256117732116 22.150076515201
8.622400000000001 0.0256103585068 -0.578041530472 0.9996687207668 -79.21959610952 0.9996687207668 -79.21959610952 0.0256113011603 22.148877463628
8.622600000000000 0.0256098845633 -0.580607692193 0.9996687326692 -79.22147878800 0.9996687326692 -79.22147878800 0.0256108273414 22.147679174090
8.622800000000000 0.0256094088470 -0.583174820802 0.9996687446162 -79.22336156943 0.9996687446162 -79.22336156943 0.0256103517501 22.146481649121
8.623000000000001 0.0256089313513 -0.585742920277 0.9996687566081 -79.22524445419 0.9996687566081 -79.22524445419 0.0256098743798 22.145284891287
8.623200000000001 0.0256084520714 -0.588311993011 0.9996687686448 -79.22712744257 0.9996687686448 -79.22712744257 0.0256093952256 22.144088903204
8.623400000000000 0.0256079710004 -0.590882043287 0.9996687807267 -79.22901053498 0.9996687807267 -79.22901053498 0.0256089142805 22.142893687587
8.623600000000000 0.0256074881334 -0.593453073625 0.9996687928538 -79.23089373170 0.9996687928538 -79.23089373170 0.0256084315398 22.141699246776
8.623800000000001 0.0256070034630 -0.596025088193 0.9996688050263 -79.23277703316 0.9996688050263 -79.23277703316 0.0256079469960 22.140505583949
8.624000000000001 0.0256065169846 -0.598598089649 0.9996688172443 -79.23466043964 0.9996688172443 -79.23466043964 0.0256074606446 22.139312701365
8.624200000000000 0.0256060286917 -0.601172081484 0.9996688295079 -79.23654395151 0.9996688295079 -79.23654395151 0.0256069724789 22.138120601970
8.624400000000001 0.0256055385781 -0.603747067398 0.9996688418174 -79.23842756915 0.9996688418174 -79.23842756915 0.0256064824929 22.136929288355
8.624600000000001 0.0256050466373 -0.606323051018 0.9996688541729 -79.24031129292 0.9996688541729 -79.24031129292 0.0256059906801 22.135738763381
8.624800000000000 0.0256045528651 -0.608900034706 0.9996688665745 -79.24219512309 0.9996688665745 -79.24219512309 0.0256054970361 22.134549029115
8.625000000000000 0.0256040572531 -0.611478023091 0.9996688790223 -79.24407906014 0.9996688790223 -79.24407906014 0.0256050015526 22.133360089326
8.625200000000001 0.0256035597972 -0.614057018643 0.9996688915167 -79.24596310431 0.9996688915167 -79.24596310431 0.0256045042257 22.132171945654
8.625400000000001 0.0256030604902 -0.616637025170 0.9996689040575 -79.24784725603 0.9996689040575 -79.24784725603 0.0256040050479 22.130984601667
8.625600000000000 0.0256025593253 -0.619218046733 0.9996689166451 -79.24973151569 0.9996689166451 -79.24973151569 0.0256035040127 22.129798059998
8.625800000000000 0.0256020562972 -0.621800086271 0.9996689292796 -79.25161588361 0.9996689292796 -79.25161588361 0.0256030011145 22.128612323333
8.626000000000001 0.0256015513993 -0.624383147495 0.9996689419612 -79.25350036017 0.9996689419612 -79.25350036017 0.0256024963468 22.127427394459
8.626200000000001 0.0256010446257 -0.626967233540 0.9996689546898 -79.25538494572 0.9996689546898 -79.25538494572 0.0256019897039 22.126243276207
8.626400000000000 0.0256005359699 -0.629552348293 0.9996689674659 -79.25726964064 0.9996689674659 -79.25726964064 0.0256014811791 22.125059971370
8.626600000000000 0.0256000254253 -0.632138495560 0.9996689802895 -79.25915444532 0.9996689802895 -79.25915444532 0.0256009707658 22.123877482807
8.626800000000001 0.0255995129855 -0.634725678782 0.9996689931607 -79.26103936014 0.9996689931607 -79.26103936014 0.0256004584576 22.122695813559
8.627000000000001 0.0255989986452 -0.637313900978 0.9996690060798 -79.26292438539 0.9996690060798 -79.26292438539 0.0255999442493 22.121514965912
8.627200000000000 0.0255984823964 -0.639903166571 0.9996690190468 -79.26480952157 0.9996690190468 -79.26480952157 0.0255994281329 22.120334943556
8.627400000000000 0.0255979642341 -0.642493478691 0.9996690320621 -79.26669476895 0.9996690320621 -79.26669476895 0.0255989101032 22.119155748603
8.627600000000001 0.0255974441509 -0.645084841142 0.9996690451255 -79.26858012798 0.9996690451255 -79.26858012798 0.0255983901531 22.117977384463
8.627800000000001 0.0255969221399 -0.647677257928 0.9996690582375 -79.27046559906 0.9996690582375 -79.27046559906 0.0255978682754 22.116799854322
8.628000000000000 0.0255963981965 -0.650270731827 0.9996690713980 -79.27235118245 0.9996690713980 -79.27235118245 0.0255973444658 22.115623160002
8.628200000000001 0.0255958723120 -0.652865267478 0.9996690846073 -79.27423687867 0.9996690846073 -79.27423687867 0.0255968187154 22.114447305711
8.628400000000001 0.0255953444811 -0.655460868084 0.9996690978656 -79.27612268803 0.9996690978656 -79.27612268803 0.0255962910189 22.113272293597
8.628600000000000 0.0255948146964 -0.658057537667 0.9996691111730 -79.27800861097 0.9996691111730 -79.27800861097 0.0255957613691 22.112098127061
8.628800000000000 0.0255942829516 -0.660655279966 0.9996691245297 -79.27989464785 0.9996691245297 -79.27989464785 0.0255952297595 22.110924808856
8.629000000000001 0.0255937492402 -0.663254098450 0.9996691379358 -79.28178079905 0.9996691379358 -79.28178079905 0.0255946961837 22.109752342076
8.629200000000001 0.0255932135558 -0.665853996974 0.9996691513915 -79.28366706496 0.9996691513915 -79.28366706496 0.0255941606351 22.108580729507
8.629400000000000 0.0255926758907 -0.668454979620 0.9996691648970 -79.28555344602 0.9996691648970 -79.28555344602 0.0255936231063 22.107409974595
8.629600000000000 0.0255921362387 -0.671057050036 0.9996691784523 -79.28743994260 0.9996691784523 -79.28743994260 0.0255930835909 22.106240080195
8.629800000000001 0.0255915945924 -0.673660212454 0.9996691920579 -79.28932655514 0.9996691920579 -79.28932655514 0.0255925420816 22.105071049448
8.630000000000001 0.0255910509460 -0.676264469935 0.9996692057137 -79.29121328396 0.9996692057137 -79.29121328396 0.0255919985726 22.103902885194
8.630200000000000 0.0255905052924 -0.678869826838 0.9996692194199 -79.29310012949 0.9996692194199 -79.29310012949 0.0255914530567 22.102735590475
8.630400000000000 0.0255899576243 -0.681476286837 0.9996692331767 -79.29498709217 0.9996692331767 -79.29498709217 0.0255909055267 22.101569168859
8.630600000000001 0.0255894079345 -0.684083854300 0.9996692469843 -79.29687417239 0.9996692469843 -79.29687417239 0.0255903559755 22.100403623181
8.630800000000001 0.0255888562163 -0.686692533188 0.9996692608430 -79.29876137058 0.9996692608430 -79.29876137058 0.0255898043961 22.099238956548
8.631000000000000 0.0255883024629 -0.689302326904 0.9996692747527 -79.30064868712 0.9996692747527 -79.30064868712 0.0255892507820 22.098075172222
8.631200000000000 0.0255877466677 -0.691913239548 0.9996692887137 -79.30253612241 0.9996692887137 -79.30253612241 0.0255886951263 22.096912273077
8.631400000000001 0.0255871888223 -0.694525275533 0.9996693027261 -79.30442367692 0.9996693027261 -79.30442367692 0.0255881374210 22.095750262902
8.631600000000001 0.0255866289210 -0.697138438452 0.9996693167903 -79.30631135101 0.9996693167903 -79.30631135101 0.0255875776600 22.094589144201
8.631800000000000 0.0255860669559 -0.699752732398 0.9996693309062 -79.30819914512 0.9996693309062 -79.30819914512 0.0255870158358 22.093428920620
8.632000000000000 0.0255855029202 -0.702368161585 0.9996693450742 -79.31008705967 0.9996693450742 -79.31008705967 0.0255864519412 22.092269595137
8.632200000000001 0.0255849368067 -0.704984729863 0.9996693592944 -79.31197509507 0.9996693592944 -79.31197509507 0.0255858859692 22.091111171117
8.632400000000001 0.0255843686075 -0.707602441754 0.9996693735669 -79.31386325179 0.9996693735669 -79.31386325179 0.0255853179119 22.089953651973
8.632600000000000 0.0255837983166 -0.710221300603 0.9996693878919 -79.31575153018 0.9996693878919 -79.31575153018 0.0255847477633 22.088797040544
8.632800000000001 0.0255832259249 -0.712841311575 0.9996694022697 -79.31763993078 0.9996694022697 -79.31763993078 0.0255841755143 22.087641340870
8.633000000000001 0.0255826514268 -0.715462477846 0.9996694167003 -79.31952845391 0.9996694167003 -79.31952845391 0.0255836011593 22.086486555538
8.633200000000000 0.0255820748145 -0.718084804006 0.9996694311841 -79.32141710002 0.9996694311841 -79.32141710002 0.0255830246906 22.085332687820
8.633400000000000 0.0255814960795 -0.720708294604 0.9996694457211 -79.32330586964 0.9996694457211 -79.32330586964 0.0255824460995 22.084179741881
8.633600000000001 0.0255809152159 -0.723332953181 0.9996694603115 -79.32519476308 0.9996694603115 -79.32519476308 0.0255818653802 22.083027720170
8.633800000000001 0.0255803322155 -0.725958784120 0.9996694749555 -79.32708378085 0.9996694749555 -79.32708378085 0.0255812825245 22.081876626628
8.634000000000000 0.0255797470714 -0.728585791724 0.9996694896534 -79.32897292334 0.9996694896534 -79.32897292334 0.0255806975254 22.080726464072
8.634200000000000 0.0255791597735 -0.731213981253 0.9996695044053 -79.33086219115 0.9996695044053 -79.33086219115 0.0255801103730 22.079577237222
8.634400000000001 0.0255785703180 -0.733843355309 0.9996695192114 -79.33275158449 0.9996695192114 -79.33275158449 0.0255795210635 22.078428947638
8.634600000000001 0.0255779786953 -0.736473918979 0.9996695340718 -79.33464110394 0.9996695340718 -79.33464110394 0.0255789295871 22.077281599979
8.634800000000000 0.0255773848972 -0.739105677027 0.9996695489868 -79.33653074997 0.9996695489868 -79.33653074997 0.0255783359358 22.076135197662
8.635000000000000 0.0255767889185 -0.741738632553 0.9996695639565 -79.33842052290 0.9996695639565 -79.33842052290 0.0255777401042 22.074989743207
8.635200000000001 0.0255761907480 -0.744372791782 0.9996695789813 -79.34031042337 0.9996695789813 -79.34031042337 0.0255771420812 22.073845241414
8.635400000000001 0.0255755903804 -0.747008157559 0.9996695940610 -79.34220045170 0.9996695940610 -79.34220045170 0.0255765418616 22.072701695046
8.635600000000000 0.0255749878072 -0.749644735110 0.9996696091963 -79.34409060838 0.9996696091963 -79.34409060838 0.0255759394368 22.071559107494
8.635800000000000 0.0255743830206 -0.752282528376 0.9996696243869 -79.34598089388 0.9996696243869 -79.34598089388 0.0255753347990 22.070417482772
8.636000000000001 0.0255737760125 -0.754921542193 0.9996696396332 -79.34787130868 0.9996696396332 -79.34787130868 0.0255747279401 22.069276824253
8.636200000000001 0.0255731667759 -0.757561780626 0.9996696549355 -79.34976185318 0.9996696549355 -79.34976185318 0.0255741188531 22.068137135201
8.636400000000000 0.0255725553012 -0.760203248935 0.9996696702939 -79.35165252794 0.9996696702939 -79.35165252794 0.0255735075286 22.066998419811
8.636600000000001 0.0255719415819 -0.762845950966 0.9996696857086 -79.35354333335 0.9996696857086 -79.35354333335 0.0255728939597 22.065860681175
8.636800000000001 0.0255713256098 -0.765489891211 0.9996697011797 -79.35543426989 0.9996697011797 -79.35543426989 0.0255722781386 22.064723923016
8.637000000000000 0.0255707073758 -0.768135074886 0.9996697167075 -79.35732533809 0.9996697167075 -79.35732533809 0.0255716600559 22.063588149385
8.637200000000000 0.0255700868727 -0.770781506232 0.9996697322923 -79.35921653838 0.9996697322923 -79.35921653838 0.0255710397046 22.062453363430
8.637400000000001 0.0255694640921 -0.773429189848 0.9996697479342 -79.36110787125 0.9996697479342 -79.36110787125 0.0255704170762 22.061319569166
8.637600000000001 0.0255688390262 -0.776078130190 0.9996697636333 -79.36299933715 0.9996697636333 -79.36299933715 0.0255697921630 22.060186769977
8.637800000000000 0.0255682116660 -0.778728332383 0.9996697793899 -79.36489093662 0.9996697793899 -79.36489093662 0.0255691649559 22.059054970015
8.638000000000000 0.0255675820039 -0.781379800561 0.9996697952042 -79.36678267010 0.9996697952042 -79.36678267010 0.0255685354474 22.057924172813
8.638200000000001 0.0255669500319 -0.784032539665 0.9996698110764 -79.36867453807 0.9996698110764 -79.36867453807 0.0255679036293 22.056794381805
8.638400000000001 0.0255663157408 -0.786686554646 0.9996698270067 -79.37056654106 0.9996698270067 -79.37056654106 0.0255672694926 22.055665601185
8.638600000000000 0.0255656791220 -0.789341850435 0.9996698429954 -79.37245867957 0.9996698429954 -79.37245867957 0.0255666330287 22.054537834867
8.638800000000000 0.0255650401689 -0.791998430875 0.9996698590425 -79.37435095400 0.9996698590425 -79.37435095400 0.0255659942309 22.053411085966
8.639000000000001 0.0255643988708 -0.794656301771 0.9996698751484 -79.37624336497 0.9996698751484 -79.37624336497 0.0255653530886 22.052285359242
8.639200000000001 0.0255637552211 -0.797315467262 0.9996698913132 -79.37813591288 0.9996698913132 -79.37813591288 0.0255647095951 22.051160657679
8.639400000000000 0.0255631092098 -0.799975932743 0.9996699075371 -79.38002859829 0.9996699075371 -79.38002859829 0.0255640637404 22.050036985778
8.639600000000000 0.0255624608286 -0.802637703092 0.9996699238205 -79.38192142172 0.9996699238205 -79.38192142172 0.0255634155164 22.048914347241
8.639800000000001 0.0255618100696 -0.805300782683 0.9996699401634 -79.38381438361 0.9996699401634 -79.38381438361 0.0255627649150 22.047792745866
8.640000000000001 0.0255611569237 -0.807965176727 0.9996699565660 -79.38570748450 0.9996699565660 -79.38570748450 0.0255621119272 22.046672185601
8.640200000000000 0.0255605013817 -0.810630890406 0.9996699730287 -79.38760072494 0.9996699730287 -79.38760072494 0.0255614565437 22.045552670813