! Sonnet Data File
! From: emgraph Version : 16.52
! From Project: 171117_Xmon_fullysym
! Data is De-embedded 
! Data File Written: 11/26/2017 21:44:46
!< HDATE 11/26/2017 17:24:49
!< MDATE 11/26/2017 17:24:49
!< PARAMS
!< Lj = 11.0
!< Gap = 1.0
!< Pwid = 2000.0
!< Airgap = 6.0
!< Width = 10.0
!< Lj1 = 10.0
!< END PARAMS
# GHZ S MA R 50.90000
8.600000000000001 0.0255288529762 -0.352331306373 0.9996708258398 -79.01656611904 0.9996708258398 -79.01656611932 0.0255297882916 22.329205991857
!< P1 F=8.6 Eeff=(6.44845572 -2.9799e-5) Z0=(50.9087207 1.17006e-4) R=0.0 C=0.0 
!< P2 F=8.6 Eeff=(6.44845572 -2.9799e-5) Z0=(50.9087207 1.17006e-4) R=0.0 C=0.0 
8.600200000000001 0.0255285087251 -0.354825763799 0.9996708344681 -79.01844129463 0.9996708344681 -79.01844129463 0.0255294441569 22.327950751113
8.600400000000000 0.0255281632902 -0.357320913376 0.9996708431012 -79.02031654083 0.9996708431012 -79.02031654083 0.0255290988180 22.326696021733
8.600600000000000 0.0255278166370 -0.359816727647 0.9996708517649 -79.02219185746 0.9996708517649 -79.02219185746 0.0255287522610 22.325441818118
8.600800000000001 0.0255274687633 -0.362313207812 0.9996708604594 -79.02406724465 0.9996708604594 -79.02406724465 0.0255284044836 22.324188141451
8.601000000000001 0.0255271196651 -0.364810356176 0.9996708691847 -79.02594270262 0.9996708691847 -79.02594270262 0.0255280554821 22.322934993372
8.601200000000000 0.0255267693397 -0.367308174259 0.9996708779409 -79.02781823155 0.9996708779409 -79.02781823155 0.0255277052535 22.321682375237
8.601400000000000 0.0255264177830 -0.369806664299 0.9996708867281 -79.02969383166 0.9996708867281 -79.02969383166 0.0255273537938 22.320430288960
8.601600000000001 0.0255260649914 -0.372305828453 0.9996708955464 -79.03156950318 0.9996708955464 -79.03156950318 0.0255270010994 22.319178735968
8.601800000000001 0.0255257109622 -0.374805668251 0.9996709043959 -79.03344524626 0.9996709043959 -79.03344524626 0.0255266471676 22.317927717554
8.602000000000000 0.0255253556907 -0.377306186249 0.9996709132766 -79.03532106117 0.9996709132766 -79.03532106117 0.0255262919938 22.316677235846
8.602200000000000 0.0255249991751 -0.379807383598 0.9996709221887 -79.03719694803 0.9996709221887 -79.03719694803 0.0255259355760 22.315427291740
8.602400000000001 0.0255246414097 -0.382309263410 0.9996709311322 -79.03907290716 0.9996709311322 -79.03907290716 0.0255255779087 22.314177887577
8.602600000000001 0.0255242823930 -0.384811826676 0.9996709401072 -79.04094893866 0.9996709401072 -79.04094893866 0.0255252189901 22.312929024296
8.602800000000000 0.0255239221203 -0.387315075923 0.9996709491138 -79.04282504280 0.9996709491138 -79.04282504280 0.0255248588159 22.311680703838
8.603000000000000 0.0255235605887 -0.389819012896 0.9996709581522 -79.04470121975 0.9996709581522 -79.04470121975 0.0255244973830 22.310432927577
8.603200000000001 0.0255231977939 -0.392323639975 0.9996709672223 -79.04657746976 0.9996709672223 -79.04657746976 0.0255241346871 22.309185697432
8.603400000000001 0.0255228337328 -0.394828958815 0.9996709763243 -79.04845379302 0.9996709763243 -79.04845379302 0.0255237707251 22.307939014962
8.603600000000000 0.0255224684019 -0.397334971586 0.9996709854582 -79.05033018973 0.9996709854582 -79.05033018973 0.0255234054935 22.306692881572
8.603800000000000 0.0255221017970 -0.399841680718 0.9996709946242 -79.05220666015 0.9996709946242 -79.05220666015 0.0255230389880 22.305447299114
8.604000000000001 0.0255217339150 -0.402349087650 0.9996710038223 -79.05408320443 0.9996710038223 -79.05408320443 0.0255226712058 22.304202269172
8.604200000000001 0.0255213647527 -0.404857194536 0.9996710130527 -79.05595982279 0.9996710130527 -79.05595982279 0.0255223021434 22.302957793078
8.604400000000000 0.0255209943049 -0.407366004159 0.9996710223154 -79.05783651552 0.9996710223154 -79.05783651552 0.0255219317958 22.301713873162
8.604600000000001 0.0255206225699 -0.409875517425 0.9996710316105 -79.05971328272 0.9996710316105 -79.05971328272 0.0255215601612 22.300470510343
8.604800000000001 0.0255202495421 -0.412385737698 0.9996710409381 -79.06159012473 0.9996710409381 -79.06159012473 0.0255211872340 22.299227706863
8.605000000000000 0.0255198752194 -0.414896666085 0.9996710502983 -79.06346704166 0.9996710502983 -79.06346704166 0.0255208130121 22.297985463935
8.605200000000000 0.0255194995970 -0.417408305193 0.9996710596912 -79.06534403379 0.9996710596912 -79.06534403379 0.0255204374907 22.296743783707
8.605400000000001 0.0255191226719 -0.419920656877 0.9996710691168 -79.06722110131 0.9996710691168 -79.06722110131 0.0255200606668 22.295502667435
8.605600000000001 0.0255187444394 -0.422433723793 0.9996710785754 -79.06909824449 0.9996710785754 -79.06909824449 0.0255196825358 22.294262117203
8.605800000000000 0.0255183648973 -0.424947507089 0.9996710880668 -79.07097546346 0.9996710880668 -79.07097546346 0.0255193030954 22.293022134201
8.606000000000000 0.0255179840398 -0.427462010127 0.9996710975914 -79.07285275855 0.9996710975914 -79.07285275855 0.0255189223398 22.291782720836
8.606200000000001 0.0255176018646 -0.429977234232 0.9996711071491 -79.07473012991 0.9996711071491 -79.07473012991 0.0255185402667 22.290543878277
8.606400000000001 0.0255172183677 -0.432493181670 0.9996711167401 -79.07660757777 0.9996711167401 -79.07660757777 0.0255181568721 22.289305608352
8.606600000000000 0.0255168335450 -0.435009854789 0.9996711263644 -79.07848510237 0.9996711263644 -79.07848510237 0.0255177721520 22.288067912809
8.606800000000000 0.0255164473924 -0.437527255720 0.9996711360221 -79.08036270395 0.9996711360221 -79.08036270395 0.0255173861022 22.286830793603
8.607000000000001 0.0255160599065 -0.440045386630 0.9996711457134 -79.08224038271 0.9996711457134 -79.08224038271 0.0255169987194 22.285594252238
8.607200000000001 0.0255156710834 -0.442564249756 0.9996711554383 -79.08411813888 0.9996711554383 -79.08411813888 0.0255166099994 22.284358290466
8.607400000000000 0.0255152809191 -0.445083847123 0.9996711651969 -79.08599597269 0.9996711651969 -79.08599597269 0.0255162199387 22.283122910088
8.607600000000000 0.0255148894098 -0.447604181097 0.9996711749893 -79.08787388437 0.9996711749893 -79.08787388437 0.0255158285331 22.281888112908
8.607800000000001 0.0255144965515 -0.450125253974 0.9996711848156 -79.08975187415 0.9996711848156 -79.08975187415 0.0255154357787 22.280653900590
8.608000000000001 0.0255141023398 -0.452647068047 0.9996711946760 -79.09162994229 0.9996711946760 -79.09162994229 0.0255150416712 22.279420275232
8.608200000000000 0.0255137067717 -0.455169625238 0.9996712045704 -79.09350808897 0.9996712045704 -79.09350808897 0.0255146462074 22.278187238188
8.608400000000001 0.0255133098427 -0.457692927945 0.9996712144991 -79.09538631445 0.9996712144991 -79.09538631445 0.0255142493830 22.276954791526
8.608600000000001 0.0255129115490 -0.460216978533 0.9996712244621 -79.09726461896 0.9996712244621 -79.09726461896 0.0255138511941 22.275722936840
8.608800000000000 0.0255125118860 -0.462741779320 0.9996712344595 -79.09914300275 0.9996712344595 -79.09914300275 0.0255134516362 22.274491676331
8.609000000000000 0.0255121108504 -0.465267332385 0.9996712444914 -79.10102146604 0.9996712444914 -79.10102146604 0.0255130507060 22.273261011446
8.609200000000001 0.0255117084381 -0.467793640119 0.9996712545579 -79.10290000906 0.9996712545579 -79.10290000906 0.0255126483992 22.272030944037
8.609400000000001 0.0255113046445 -0.470320705030 0.9996712646591 -79.10477863207 0.9996712646591 -79.10477863207 0.0255122447113 22.270801476167
8.609600000000000 0.0255108994665 -0.472848528778 0.9996712747951 -79.10665733527 0.9996712747951 -79.10665733527 0.0255118396393 22.269572609479
8.609800000000000 0.0255104928987 -0.475377114557 0.9996712849660 -79.10853611896 0.9996712849660 -79.10853611896 0.0255114331778 22.268344346019
8.610000000000001 0.0255100849383 -0.477906463979 0.9996712951719 -79.11041498332 0.9996712951719 -79.11041498332 0.0255110253238 22.267116687432
8.610200000000001 0.0255096755808 -0.480436579649 0.9996713054129 -79.11229392860 0.9996713054129 -79.11229392860 0.0255106160731 22.265889635427
8.610400000000000 0.0255092648217 -0.482967463945 0.9996713156891 -79.11417295507 0.9996713156891 -79.11417295507 0.0255102054209 22.264663192342
8.610600000000000 0.0255088526570 -0.485499119299 0.9996713260007 -79.11605206297 0.9996713260007 -79.11605206297 0.0255097933634 22.263437359785
8.610800000000001 0.0255084390825 -0.488031548025 0.9996713363476 -79.11793125254 0.9996713363476 -79.11793125254 0.0255093798964 22.262212139732
8.611000000000001 0.0255080240945 -0.490564752245 0.9996713467301 -79.11981052400 0.9996713467301 -79.11981052400 0.0255089650161 22.260987533925
8.611200000000000 0.0255076076879 -0.493098734947 0.9996713571482 -79.12168987766 0.9996713571482 -79.12168987766 0.0255085487173 22.259763544546
8.611400000000000 0.0255071898595 -0.495633497848 0.9996713676020 -79.12356931369 0.9996713676020 -79.12356931369 0.0255081309971 22.258540173140
8.611600000000001 0.0255067706048 -0.498169043492 0.9996713780917 -79.12544883236 0.9996713780917 -79.12544883236 0.0255077118508 22.257317421810
8.611800000000001 0.0255063499189 -0.500705374809 0.9996713886173 -79.12732843396 0.9996713886173 -79.12732843396 0.0255072912736 22.256095292554
8.612000000000000 0.0255059277979 -0.503242493823 0.9996713991789 -79.12920811871 0.9996713991789 -79.12920811871 0.0255068692615 22.254873787392
8.612200000000001 0.0255055042376 -0.505780403046 0.9996714097766 -79.13108788688 0.9996714097766 -79.13108788688 0.0255064458103 22.253652908191
8.612400000000001 0.0255050792336 -0.508319105036 0.9996714204107 -79.13296773871 0.9996714204107 -79.13296773871 0.0255060209156 22.252432656762
8.612600000000000 0.0255046527822 -0.510858601788 0.9996714310810 -79.13484767441 0.9996714310810 -79.13484767441 0.0255055945739 22.251213034977
8.612800000000000 0.0255042248780 -0.513398896403 0.9996714417879 -79.13672769432 0.9996714417879 -79.13672769432 0.0255051667796 22.249994045209
8.613000000000001 0.0255037955178 -0.515939990733 0.9996714525313 -79.13860779861 0.9996714525313 -79.13860779861 0.0255047375296 22.248775688914
8.613200000000001 0.0255033646960 -0.518481888003 0.9996714633114 -79.14048798761 0.9996714633114 -79.14048798761 0.0255043068182 22.247557968625
8.613400000000000 0.0255029324088 -0.521024590372 0.9996714741283 -79.14236826156 0.9996714741283 -79.14236826156 0.0255038746416 22.246340886090
8.613600000000000 0.0255024986522 -0.523568099979 0.9996714849821 -79.14424862068 0.9996714849821 -79.14424862068 0.0255034409959 22.245124443216
8.613800000000001 0.0255020634212 -0.526112419814 0.9996714958728 -79.14612906526 0.9996714958728 -79.14612906526 0.0255030058760 22.243908642183
8.614000000000001 0.0255016267118 -0.528657552154 0.9996715068008 -79.14800959555 0.9996715068008 -79.14800959555 0.0255025692780 22.242693484775
8.614200000000000 0.0255011885190 -0.531203499835 0.9996715177659 -79.14989021183 0.9996715177659 -79.14989021183 0.0255021311969 22.241478973249
8.614400000000000 0.0255007488383 -0.533750265314 0.9996715287684 -79.15177091437 0.9996715287684 -79.15177091437 0.0255016916281 22.240265109848
8.614600000000001 0.0255003076654 -0.536297851182 0.9996715398083 -79.15365170342 0.9996715398083 -79.15365170342 0.0255012505674 22.239051896270
8.614800000000001 0.0254998649964 -0.538846259667 0.9996715508858 -79.15553257921 0.9996715508858 -79.15553257921 0.0255008080108 22.237839334423
8.615000000000000 0.0254994208256 -0.541395493901 0.9996715620009 -79.15741354208 0.9996715620009 -79.15741354208 0.0255003639527 22.236627426918
8.615200000000000 0.0254989751499 -0.543945555739 0.9996715731539 -79.15929459221 0.9996715731539 -79.15929459221 0.0254999183899 22.235416175166
8.615400000000001 0.0254985279632 -0.546496448690 0.9996715843447 -79.16117572995 0.9996715843447 -79.16117572995 0.0254994713164 22.234205581846
8.615600000000001 0.0254980792615 -0.549048174951 0.9996715955736 -79.16305695554 0.9996715955736 -79.16305695554 0.0254990227282 22.232995648839
8.615800000000000 0.0254976290405 -0.551600736996 0.9996716068406 -79.16493826924 0.9996716068406 -79.16493826924 0.0254985726209 22.231786378176
8.616000000000000 0.0254971772952 -0.554154137663 0.9996716181458 -79.16681967133 0.9996716181458 -79.16681967133 0.0254981209896 22.230577772058
8.616200000000001 0.0254967240208 -0.556708379759 0.9996716294893 -79.16870116211 0.9996716294893 -79.16870116211 0.0254976678294 22.229369832633
8.616400000000001 0.0254962692138 -0.559263465272 0.9996716408714 -79.17058274176 0.9996716408714 -79.17058274176 0.0254972131370 22.228162561539
8.616600000000000 0.0254958128673 -0.561819398013 0.9996716522920 -79.17246441071 0.9996716522920 -79.17246441071 0.0254967569053 22.226955961991
8.616800000000001 0.0254953549787 -0.564376179562 0.9996716637513 -79.17434616910 0.9996716637513 -79.17434616910 0.0254962991318 22.225750035077
8.617000000000001 0.0254948955422 -0.566933813326 0.9996716752494 -79.17622801727 0.9996716752494 -79.17622801727 0.0254958398106 22.224544783444
8.617200000000000 0.0254944345534 -0.569492301817 0.9996716867865 -79.17810995549 0.9996716867865 -79.17810995549 0.0254953789373 22.223340209072
8.617400000000000 0.0254939720072 -0.572051647762 0.9996716983627 -79.17999198404 0.9996716983627 -79.17999198404 0.0254949165071 22.222136314287
8.617600000000001 0.0254935078992 -0.574611853660 0.9996717099779 -79.18187410320 0.9996717099779 -79.18187410320 0.0254944525152 22.220933101352
8.617800000000001 0.0254930422240 -0.577172922789 0.9996717216325 -79.18375631327 0.9996717216325 -79.18375631327 0.0254939869564 22.219730572362
8.618000000000000 0.0254925749771 -0.579734857718 0.9996717333266 -79.18563861453 0.9996717333266 -79.18563861453 0.0254935198261 22.218528729483
8.618200000000000 0.0254921061542 -0.582297660627 0.9996717450600 -79.18752100722 0.9996717450600 -79.18752100722 0.0254930511203 22.217327574863
8.618400000000001 0.0254916357496 -0.584861334986 0.9996717568332 -79.18940349167 0.9996717568332 -79.18940349167 0.0254925808329 22.216127110951
8.618600000000001 0.0254911637581 -0.587425883879 0.9996717686462 -79.19128606820 0.9996717686462 -79.19128606820 0.0254921089589 22.214927339958
8.618800000000000 0.0254906901760 -0.589991309177 0.9996717804990 -79.19316873702 0.9996717804990 -79.19316873702 0.0254916354947 22.213728263808
8.619000000000000 0.0254902149974 -0.592557614370 0.9996717923918 -79.19505149848 0.9996717923918 -79.19505149848 0.0254911604341 22.212529885183
8.619200000000001 0.0254897382178 -0.595124802093 0.9996718043248 -79.19693435284 0.9996718043248 -79.19693435284 0.0254906837728 22.211332206000
8.619400000000001 0.0254892598325 -0.597692874898 0.9996718162980 -79.19881730038 0.9996718162980 -79.19881730038 0.0254902055062 22.210135228526
8.619600000000000 0.0254887798359 -0.600261836009 0.9996718283116 -79.20070034142 0.9996718283116 -79.20070034142 0.0254897256286 22.208938955273
8.619800000000000 0.0254882982226 -0.602831688670 0.9996718403658 -79.20258347630 0.9996718403658 -79.20258347630 0.0254892441344 22.207743388621
8.620000000000001 0.0254878149876 -0.605402435497 0.9996718524605 -79.20446670528 0.9996718524605 -79.20446670528 0.0254887610190 22.206548530945
8.620200000000001 0.0254873301270 -0.607974079015 0.9996718645961 -79.20635002862 0.9996718645961 -79.20635002862 0.0254882762781 22.205354383962
8.620400000000000 0.0254868436353 -0.610546622055 0.9996718767724 -79.20823344662 0.9996718767724 -79.20823344662 0.0254877899065 22.204160950369
8.620600000000001 0.0254863555063 -0.613120068346 0.9996718889898 -79.21011695966 0.9996718889898 -79.21011695966 0.0254873018978 22.202968232766
8.620800000000001 0.0254858657362 -0.615694419989 0.9996719012483 -79.21200056796 0.9996719012483 -79.21200056796 0.0254868122484 22.201776233070
8.621000000000000 0.0254853743189 -0.618269680482 0.9996719135481 -79.21388427186 0.9996719135481 -79.21388427186 0.0254863209521 22.200584953959
8.621200000000000 0.0254848812502 -0.620845852451 0.9996719258893 -79.21576807164 0.9996719258893 -79.21576807164 0.0254858280045 22.199394397343
8.621400000000001 0.0254843865239 -0.623422939013 0.9996719382719 -79.21765196764 0.9996719382719 -79.21765196764 0.0254853333998 22.198204566174
8.621600000000001 0.0254838901349 -0.626000943488 0.9996719506963 -79.21953596017 0.9996719506963 -79.21953596017 0.0254848371325 22.197015462569
8.621800000000000 0.0254833920779 -0.628579868654 0.9996719631624 -79.22142004953 0.9996719631624 -79.22142004953 0.0254843391976 22.195827089144
8.622000000000000 0.0254828923488 -0.631159716983 0.9996719756704 -79.22330423597 0.9996719756704 -79.22330423597 0.0254838395910 22.194639447698
8.622200000000001 0.0254823909408 -0.633740492297 0.9996719882204 -79.22518851989 0.9996719882204 -79.22518851989 0.0254833383057 22.193452541391
8.622400000000001 0.0254818878496 -0.636322197080 0.9996720008126 -79.22707290154 0.9996720008126 -79.22707290154 0.0254828353375 22.192266372163
8.622600000000000 0.0254813830690 -0.638904835017 0.9996720134471 -79.22895738129 0.9996720134471 -79.22895738129 0.0254823306802 22.191080942703
8.622800000000000 0.0254808765943 -0.641488408488 0.9996720261240 -79.23084195940 0.9996720261240 -79.23084195940 0.0254818243291 22.189896255447
8.623000000000001 0.0254803684195 -0.644072921293 0.9996720388435 -79.23272663623 0.9996720388435 -79.23272663623 0.0254813162782 22.188712312833
8.623200000000001 0.0254798585402 -0.646658375606 0.9996720516056 -79.23461141205 0.9996720516056 -79.23461141205 0.0254808065231 22.187529117268
8.623400000000000 0.0254793469498 -0.649244775527 0.9996720644106 -79.23649628724 0.9996720644106 -79.23649628724 0.0254802950572 22.186346671393
8.623600000000000 0.0254788336439 -0.651832123386 0.9996720772585 -79.23838126205 0.9996720772585 -79.23838126205 0.0254797818762 22.185164977349
8.623800000000001 0.0254783186158 -0.654420423136 0.9996720901496 -79.24026633689 0.9996720901496 -79.24026633689 0.0254792669731 22.183984038189
8.624000000000001 0.0254778018610 -0.657009677227 0.9996721030839 -79.24215151201 0.9996721030839 -79.24215151201 0.0254787503438 22.182803856017
8.624200000000000 0.0254772833736 -0.659599888998 0.9996721160615 -79.24403678776 0.9996721160615 -79.24403678776 0.0254782319822 22.181624433639
8.624400000000001 0.0254767631479 -0.662191061892 0.9996721290826 -79.24592216448 0.9996721290826 -79.24592216448 0.0254777118825 22.180445773496
8.624600000000001 0.0254762411779 -0.664783199331 0.9996721421474 -79.24780764251 0.9996721421474 -79.24780764251 0.0254771900389 22.179267878273
8.624800000000000 0.0254757174597 -0.667376303535 0.9996721552560 -79.24969322210 0.9996721552560 -79.24969322210 0.0254766664474 22.178090749932
8.625000000000000 0.0254751919854 -0.669970378879 0.9996721684085 -79.25157890370 0.9996721684085 -79.25157890370 0.0254761411000 22.176914392060
8.625200000000001 0.0254746647515 -0.672565427649 0.9996721816050 -79.25346468751 0.9996721816050 -79.25346468751 0.0254756139934 22.175738806151
8.625400000000001 0.0254741357511 -0.675161453439 0.9996721948457 -79.25535057395 0.9996721948457 -79.25535057395 0.0254750851207 22.174563995636
8.625600000000000 0.0254736049780 -0.677758460097 0.9996722081308 -79.25723656337 0.9996722081308 -79.25723656337 0.0254745544756 22.173389962987
8.625800000000000 0.0254730724273 -0.680356450345 0.9996722214603 -79.25912265607 0.9996722214603 -79.25912265607 0.0254740220531 22.172216710678
8.626000000000001 0.0254725380930 -0.682955427699 0.9996722348345 -79.26100885240 0.9996722348345 -79.26100885240 0.0254734878473 22.171044241416
8.626200000000001 0.0254720019695 -0.685555395097 0.9996722482534 -79.26289515269 0.9996722482534 -79.26289515269 0.0254729518528 22.169872557854
8.626400000000000 0.0254714640509 -0.688156356182 0.9996722617172 -79.26478155727 0.9996722617172 -79.26478155727 0.0254724140635 22.168701662605
8.626600000000000 0.0254709243310 -0.690758314577 0.9996722752261 -79.26666806653 0.9996722752261 -79.26666806653 0.0254718744731 22.167531558428
8.626800000000001 0.0254703828039 -0.693361273467 0.9996722887801 -79.26855468079 0.9996722887801 -79.26855468079 0.0254713330759 22.166362248108
8.627000000000001 0.0254698394649 -0.695965235696 0.9996723023795 -79.27044140035 0.9996723023795 -79.27044140035 0.0254707898671 22.165193733872
8.627200000000000 0.0254692943064 -0.698570205461 0.9996723160244 -79.27232822565 0.9996723160244 -79.27232822565 0.0254702448391 22.164026019188
8.627400000000000 0.0254687473238 -0.701176185678 0.9996723297149 -79.27421515695 0.9996723297149 -79.27421515695 0.0254696979873 22.162859106046
8.627600000000001 0.0254681985104 -0.703783179914 0.9996723434512 -79.27610219466 0.9996723434512 -79.27610219466 0.0254691493051 22.161692997650
8.627800000000001 0.0254676478595 -0.706391191974 0.9996723572334 -79.27798933915 0.9996723572334 -79.27798933915 0.0254685987858 22.160527697047
8.628000000000000 0.0254670953673 -0.709000224401 0.9996723710617 -79.27987659066 0.9996723710617 -79.27987659066 0.0254680464255 22.159363205907
8.628200000000001 0.0254665410255 -0.711610281606 0.9996723849361 -79.28176394967 0.9996723849361 -79.28176394967 0.0254674922159 22.158199528239
8.628400000000001 0.0254659848292 -0.714221366610 0.9996723988570 -79.28365141648 0.9996723988570 -79.28365141648 0.0254669361522 22.157036666053
8.628600000000000 0.0254654267717 -0.716833483153 0.9996724128243 -79.28553899148 0.9996724128243 -79.28553899148 0.0254663782276 22.155874622594
8.628800000000000 0.0254648668471 -0.719446634791 0.9996724268384 -79.28742667500 0.9996724268384 -79.28742667500 0.0254658184361 22.154713400428
8.629000000000001 0.0254643050494 -0.722060824745 0.9996724408992 -79.28931446741 0.9996724408992 -79.28931446741 0.0254652567720 22.153553002468
8.629200000000001 0.0254637413726 -0.724676056668 0.9996724550070 -79.29120236906 0.9996724550070 -79.29120236906 0.0254646932291 22.152393431372
8.629400000000000 0.0254631758098 -0.727292334374 0.9996724691620 -79.29309038036 0.9996724691620 -79.29309038036 0.0254641278005 22.151234690377
8.629600000000000 0.0254626083551 -0.729909661304 0.9996724833642 -79.29497850164 0.9996724833642 -79.29497850164 0.0254635604804 22.150076782165
8.629800000000001 0.0254620390017 -0.732528041446 0.9996724976139 -79.29686673331 0.9996724976139 -79.29686673331 0.0254629912620 22.148919709733
8.630000000000001 0.0254614677443 -0.735147477661 0.9996725119111 -79.29875507567 0.9996725119111 -79.29875507567 0.0254624201399 22.147763475751
8.630200000000000 0.0254608945763 -0.737767974038 0.9996725262561 -79.30064352913 0.9996725262561 -79.30064352913 0.0254618471076 22.146608083069
8.630400000000000 0.0254603194910 -0.740389534050 0.9996725406489 -79.30253209407 0.9996725406489 -79.30253209407 0.0254612721582 22.145453535079
8.630600000000001 0.0254597424817 -0.743012161803 0.9996725550898 -79.30442077088 0.9996725550898 -79.30442077088 0.0254606952853 22.144299834467
8.630800000000001 0.0254591635422 -0.745635861011 0.9996725695790 -79.30630955994 0.9996725695790 -79.30630955994 0.0254601164825 22.143146984117
8.631000000000000 0.0254585826664 -0.748260634875 0.9996725841165 -79.30819846159 0.9996725841165 -79.30819846159 0.0254595357437 22.141994987146
8.631200000000000 0.0254579998479 -0.750886487237 0.9996725987025 -79.31008747622 0.9996725987025 -79.31008747622 0.0254589530626 22.140843846272
8.631400000000001 0.0254574150792 -0.753513422255 0.9996726133372 -79.31197660425 0.9996726133372 -79.31197660425 0.0254583684317 22.139693565042
8.631600000000001 0.0254568283548 -0.756141443288 0.9996726280208 -79.31386584602 0.9996726280208 -79.31386584602 0.0254577818455 22.138544145852
8.631800000000000 0.0254562396678 -0.758770554212 0.9996726427533 -79.31575520194 0.9996726427533 -79.31575520194 0.0254571932970 22.137395592093
8.632000000000000 0.0254556490115 -0.761400758957 0.9996726575351 -79.31764467240 0.9996726575351 -79.31764467240 0.0254566027796 22.136247906636
8.632200000000001 0.0254550563795 -0.764032061154 0.9996726723661 -79.31953425777 0.9996726723661 -79.31953425777 0.0254560102867 22.135101092607
8.632400000000001 0.0254544617644 -0.766664465058 0.9996726872467 -79.32142395848 0.9996726872467 -79.32142395848 0.0254554158112 22.133955153264
8.632600000000000 0.0254538651608 -0.769297973791 0.9996727021769 -79.32331377486 0.9996727021769 -79.32331377486 0.0254548193476 22.132810091270
8.632800000000001 0.0254532665601 -0.771932592237 0.9996727171570 -79.32520370740 0.9996727171570 -79.32520370740 0.0254542208872 22.131665910418
8.633000000000001 0.0254526659572 -0.774568323351 0.9996727321870 -79.32709375641 0.9996727321870 -79.32709375641 0.0254536204251 22.130522613187
8.633200000000000 0.0254520633452 -0.777205171438 0.9996727472673 -79.32898392231 0.9996727472673 -79.32898392231 0.0254530179541 22.129380202620
8.633400000000000 0.0254514587157 -0.779843140831 0.9996727623978 -79.33087420557 0.9996727623978 -79.33087420557 0.0254524134661 22.128238682683
8.633600000000001 0.0254508520637 -0.782482234771 0.9996727775788 -79.33276460649 0.9996727775788 -79.33276460649 0.0254518069559 22.127098055668
8.633800000000001 0.0254502433814 -0.785122457439 0.9996727928105 -79.33465512552 0.9996727928105 -79.33465512552 0.0254511984158 22.125958325299
8.634000000000000 0.0254496326625 -0.787763812834 0.9996728080930 -79.33654576305 0.9996728080930 -79.33654576305 0.0254505878395 22.124819494216
8.634200000000000 0.0254490198976 -0.790406305991 0.9996728234265 -79.33843651962 0.9996728234265 -79.33843651962 0.0254499752176 22.123681566950
8.634400000000001 0.0254484050835 -0.793049939230 0.9996728388112 -79.34032739542 0.9996728388112 -79.34032739542 0.0254493605468 22.122544544866
8.634600000000001 0.0254477882110 -0.795694717365 0.9996728542472 -79.34221839099 0.9996728542472 -79.34221839099 0.0254487438181 22.121408432413
8.634800000000000 0.0254471692727 -0.798340644929 0.9996728697347 -79.34410950677 0.9996728697347 -79.34410950677 0.0254481250239 22.120273232813
8.635000000000000 0.0254465482637 -0.800987724773 0.9996728852739 -79.34600074304 0.9996728852740 -79.34600074304 0.0254475041594 22.119138948422
8.635200000000001 0.0254459251737 -0.803635962763 0.9996729008651 -79.34789210041 0.9996729008651 -79.34789210041 0.0254468812143 22.118005583790
8.635400000000001 0.0254452999979 -0.806285361577 0.9996729165082 -79.34978357916 0.9996729165082 -79.34978357916 0.0254462561837 22.116873141538
8.635600000000000 0.0254446727283 -0.808935926139 0.9996729322036 -79.35167517976 0.9996729322036 -79.35167517976 0.0254456290598 22.115741624825
8.635800000000000 0.0254440433579 -0.811587660083 0.9996729479513 -79.35356690262 0.9996729479513 -79.35356690262 0.0254449998355 22.114611037449
8.636000000000001 0.0254434118791 -0.814240568037 0.9996729637516 -79.35545874819 0.9996729637516 -79.35545874819 0.0254443685032 22.113481382603
8.636200000000001 0.0254427782853 -0.816894653766 0.9996729796046 -79.35735071685 0.9996729796046 -79.35735071685 0.0254437350563 22.112352663360
8.636400000000000 0.0254421425680 -0.819549922206 0.9996729955106 -79.35924280911 0.9996729955106 -79.35924280911 0.0254430994863 22.111224883667
8.636600000000001 0.0254415047209 -0.822206377005 0.9996730114697 -79.36113502534 0.9996730114697 -79.36113502534 0.0254424617868 22.110098046455
8.636800000000001 0.0254408647365 -0.824864022378 0.9996730274821 -79.36302736597 0.9996730274821 -79.36302736597 0.0254418219505 22.108972155249
8.637000000000000 0.0254402226065 -0.827522863176 0.9996730435479 -79.36491983149 0.9996730435479 -79.36491983149 0.0254411799690 22.107847213833
8.637200000000000 0.0254395783242 -0.830182903435 0.9996730596674 -79.36681242231 0.9996730596674 -79.36681242231 0.0254405358356 22.106723225191
8.637400000000001 0.0254389318817 -0.832844147463 0.9996730758408 -79.36870513887 0.9996730758408 -79.36870513887 0.0254398895424 22.105600193132
8.637600000000001 0.0254382832722 -0.835506599395 0.9996730920681 -79.37059798159 0.9996730920681 -79.37059798159 0.0254392410825 22.104478120810
8.637800000000000 0.0254376324869 -0.838170264104 0.9996731083497 -79.37249095096 0.9996731083497 -79.37249095096 0.0254385904474 22.103357012158
8.638000000000000 0.0254369795193 -0.840835145436 0.9996731246856 -79.37438404740 0.9996731246856 -79.37438404740 0.0254379376303 22.102236870500
8.638200000000001 0.0254363243615 -0.843501248071 0.9996731410761 -79.37627727134 0.9996731410761 -79.37627727134 0.0254372826235 22.101117699093
8.638400000000001 0.0254356670054 -0.846168576616 0.9996731575214 -79.37817062328 0.9996731575214 -79.37817062328 0.0254366254187 22.099999501893
8.638600000000000 0.0254350074429 -0.848837135707 0.9996731740216 -79.38006410368 0.9996731740216 -79.38006410368 0.0254359660081 22.098882282554
8.638800000000000 0.0254343456679 -0.851506928956 0.9996731905770 -79.38195771291 0.9996731905770 -79.38195771291 0.0254353043853 22.097766044056
8.639000000000001 0.0254336816707 -0.854177961827 0.9996732071877 -79.38385145153 0.9996732071877 -79.38385145153 0.0254346405407 22.096650790865
8.639200000000001 0.0254330154449 -0.856850238186 0.9996732238539 -79.38574531991 0.9996732238539 -79.38574531991 0.0254339744680 22.095536525772
8.639400000000000 0.0254323469816 -0.859523763113 0.9996732405759 -79.38763931860 0.9996732405759 -79.38763931860 0.0254333061582 22.094423253084
8.639600000000000 0.0254316762730 -0.862198541203 0.9996732573538 -79.38953344803 0.9996732573538 -79.38953344803 0.0254326356035 22.093310976235
8.639800000000001 0.0254310033118 -0.864874576551 0.9996732741877 -79.39142770865 0.9996732741877 -79.39142770865 0.0254319627966 22.092199698839
8.640000000000001 0.0254303280897 -0.867551874001 0.9996732910780 -79.39332210093 0.9996732910780 -79.39332210093 0.0254312877293 22.091089424601
8.640200000000000 0.0254296505980 -0.870230438469 0.9996733080247 -79.39521662539 0.9996733080247 -79.39521662539 0.0254306103929 22.089980157636