! Sonnet Data File
! From: emgraph Version : 16.52
! From Emgraph Data: 171117_Xmon_fullysym
! Data File Written: 11/17/2017 11:13:07
!< HDATE 11/17/2017 10:52:56
!< MDATE 11/17/2017 10:52:56
!< PARAMS
!< Lj = 11.0
!< Gap = 6.0
!< Pwid = 2000.0
!< Width = 10.0
!< END PARAMS
# GHZ S MA R 50.90000
8.680000000000000 0.0200837326152 14.865048665382 0.9997849329942 -79.82364777326 0.9997849329946 -79.82364777322 0.0200821059494 5.5583730830720
!< P1 F=8.68 Eeff=(6.44684171 -2.9786e-5) Z0=(51.7993808 1.19076e-4) R=0.0 C=0.0 
!< P2 F=8.68 Eeff=(6.44684171 -2.9786e-5) Z0=(51.7993808 1.19076e-4) R=0.0 C=0.0 
8.680050000000001 0.0200560211992 14.868288651227 0.9997853756968 -79.82569957596 0.9997853756968 -79.82569957596 0.0200543784684 5.5517750800336
8.680100000000001 0.0200279991829 14.871586603476 0.9997858218044 -79.82776922902 0.9997858218044 -79.82776922902 0.0200263400615 5.5450982927284
8.680150000000001 0.0199996611552 14.874943542756 0.9997862714710 -79.82985704311 0.9997862714710 -79.82985704311 0.0199979853284 5.5383407883217
8.680200000000001 0.0199710017058 14.878360846266 0.9997867247317 -79.83196332941 0.9997867247317 -79.83196332941 0.0199693088507 5.5315009488494
8.680250000000001 0.0199420152885 14.881839935698 0.9997871816222 -79.83408840693 0.9997871816222 -79.83408840693 0.0199403050735 5.5245771103330
8.680300000000001 0.0199126962534 14.885382266355 0.9997876421802 -79.83623260065 0.9997876421802 -79.83623260065 0.0199109683385 5.5175675617357
8.680350000000001 0.0198830387624 14.888989357425 0.9997881064408 -79.83839624638 0.9997881064408 -79.83839624638 0.0198812927983 5.5104705427544
8.680400000000001 0.0198530368848 14.892662767572 0.9997885744393 -79.84057968528 0.9997885744393 -79.84057968528 0.0198512725127 5.5032842518355
8.680450000000000 0.0198226845474 14.896404086441 0.9997890462179 -79.84278326668 0.9997890462179 -79.84278326668 0.0198209013994 5.4960068177064
8.680500000000000 0.0197919755393 14.900214981280 0.9997895218091 -79.84500734788 0.9997895218091 -79.84500734788 0.0197901732372 5.4886363452696
8.680550000000000 0.0197609034852 14.904097157944 0.9997900012518 -79.84725229563 0.9997900012518 -79.84725229563 0.0197590816404 5.4811708647684
8.680600000000000 0.0197294618575 14.908052373068 0.9997904845864 -79.84951848544 0.9997904845864 -79.84951848544 0.0197276200713 5.4736083459624
8.680650000000000 0.0196976439487 14.912082470314 0.9997909718449 -79.85180630321 0.9997909718449 -79.85180630321 0.0196957818105 5.4659467212522
8.680700000000000 0.0196654429826 14.916189303878 0.9997914630703 -79.85411613877 0.9997914630703 -79.85411613877 0.0196635600712 5.4581838476840
8.680750000000000 0.0196328518697 14.920374841154 0.9997919582973 -79.85644840001 0.9997919582973 -79.85644840001 0.0196309477514 5.4503175167794
8.680800000000001 0.0195998634857 14.924641079055 0.9997924575643 -79.85880349682 0.9997924575643 -79.85880349682 0.0195979377149 5.4423454702634
8.680850000000001 0.0195664704273 14.928990089169 0.9997929609135 -79.86118185515 0.9997929609135 -79.86118185515 0.0195645225462 5.4342653521622
8.680900000000001 0.0195326651973 14.933424028588 0.9997934683764 -79.86358390640 0.9997934683764 -79.86358390640 0.0195306947339 5.4260747844200
8.680950000000001 0.0194984400383 14.937945108132 0.9997939799956 -79.86601009692 0.9997939799956 -79.86601009692 0.0194964465079 5.4177712705013
8.681000000000001 0.0194637870341 14.942555625252 0.9997944958077 -79.86846088222 0.9997944958077 -79.86846088222 0.0194617699374 5.4093522617444
8.681050000000001 0.0194286980394 14.947257951364 0.9997950158531 -79.87093673101 0.9997950158531 -79.87093673101 0.0194266568630 5.4008151149869
8.681100000000001 0.0193931647380 14.952054556222 0.9997955401645 -79.87343812186 0.9997955401645 -79.87343812186 0.0193910989526 5.3921571342383
8.681150000000001 0.0193571785686 14.956947977875 0.9997960687827 -79.87596554746 0.9997960687827 -79.87596554746 0.0193550876294 5.3833755088252
8.681200000000000 0.0193207307887 14.961940844239 0.9997966017457 -79.87851951092 0.9997966017457 -79.87851951092 0.0193186141348 5.3744673543560
8.681250000000000 0.0192838123627 14.967035888670 0.9997971390919 -79.88110053226 0.9997971390919 -79.88110053226 0.0192816694164 5.3654296811971
8.681300000000000 0.0192464141198 14.972235935124 0.9997976808555 -79.88370913930 0.9997976808555 -79.88370913930 0.0192442442854 5.3562594343196
8.681350000000000 0.0192085265081 14.977543917932 0.9997982270767 -79.88634588179 0.9997982270767 -79.88634588179 0.0192063291720 5.3469534143232
8.681400000000000 0.0191701398761 14.982962876069 0.9997987777866 -79.88901131529 0.9997987777866 -79.88901131529 0.0191679144051 5.3375083733293
8.681450000000000 0.0191312442042 14.988495946632 0.9997993330277 -79.89170601650 0.9997993330277 -79.89170601650 0.0191289899462 5.3279208999957
8.681500000000000 0.0190918292025 14.994146413498 0.9997998928321 -79.89443057774 0.9997998928321 -79.89443057774 0.0190895454843 5.3181874986675
8.681550000000000 0.0190518843854 14.999917664158 0.9998004572329 -79.89718560263 0.9998004572329 -79.89718560263 0.0190495705124 5.3083045690615
8.681600000000001 0.0190113989666 15.005813198069 0.9998010262686 -79.89997171209 0.9998010262686 -79.89997171209 0.0190090542226 5.2982683669254
8.681650000000001 0.0189703617636 15.011836695520 0.9998015999685 -79.90278954991 0.9998015999685 -79.90278954991 0.0189679854086 5.2880750274658
8.681700000000001 0.0189287613950 15.017991935539 0.9998021783679 -79.90563977134 0.9998021783679 -79.90563977134 0.0189263526654 5.2777205530498
8.681750000000001 0.0188865861196 15.024282869278 0.9998027614963 -79.90852305240 0.9998027614963 -79.90852305240 0.0188841442265 5.2672008147260
8.681800000000001 0.0188438238580 15.030713583298 0.9998033493891 -79.91144008856 0.9998033493891 -79.91144008856 0.0188413479868 5.2565115153514
8.681850000000001 0.0188004621991 15.037288345444 0.9998039420740 -79.91439159447 0.9998039420740 -79.91439159447 0.0187979515079 5.2456482282103
8.681900000000001 0.0187564884055 15.044011586788 0.9998045395783 -79.91737830361 0.9998045395783 -79.91737830361 0.0187539420239 5.2346063712990
8.681950000000001 0.0187118893521 15.050887916307 0.9998051419299 -79.92040097179 0.9998051419299 -79.92040097179 0.0187093063803 5.2233811870092
8.682000000000000 0.0186666515232 15.057922130291 0.9998057491565 -79.92346037736 0.9998057491565 -79.92346037736 0.0186640310308 5.2119677385099
8.682050000000000 0.0186207610666 15.065119222982 0.9998063612804 -79.92655731812 0.9998063612804 -79.92655731812 0.0186181020909 5.2003609307571
8.682100000000000 0.0185742036457 15.072484415713 0.9998069783213 -79.92969261980 0.9998069783213 -79.92969261980 0.0185715051897 5.1885554662752
8.682150000000000 0.0185269645221 15.080023105397 0.9998076003096 -79.93286713126 0.9998076003096 -79.93286713126 0.0185242255554 5.1765458140423
8.682200000000000 0.0184790286288 15.087740946423 0.9998082272575 -79.93608172043 0.9998082272575 -79.93608172043 0.0184762480835 5.1643263067294
8.682250000000000 0.0184303802285 15.095643858520 0.9998088591825 -79.93933729384 0.9998088591825 -79.93933729384 0.0184275569983 5.1518909922266
8.682300000000000 0.0183810033633 15.103737967950 0.9998094960983 -79.94263477083 0.9998094960983 -79.94263477083 0.0183781363021 5.1392337446985
8.682350000000001 0.0183308814310 15.112029696409 0.9998101380179 -79.94597510788 0.9998101380179 -79.94597510788 0.0183279693509 5.1263481599026
8.682400000000001 0.0182799973228 15.120525753917 0.9998107849501 -79.94935929071 0.9998107849501 -79.94935929071 0.0182770389922 5.1132275861905
8.682450000000001 0.0182283334948 15.129233128177 0.9998114369014 -79.95278833023 0.9998114369014 -79.95278833023 0.0182253276363 5.0998651242247
8.682500000000001 0.0181758718013 15.138159145767 0.9998120938712 -79.95626327205 0.9998120938712 -79.95626327205 0.0181728170891 5.0862535964690
8.682550000000001 0.0181225935204 15.147311433543 0.9998127558663 -79.95978519506 0.9998127558663 -79.95978519506 0.0181194885795 5.0723854964205
8.682600000000001 0.0180684793223 15.156698026292 0.9998134228734 -79.96335521330 0.9998134228734 -79.96335521330 0.0180653227237 5.0582530573941
8.682650000000001 0.0180135093453 15.166327268608 0.9998140948892 -79.96697447150 0.9998140948892 -79.96697447150 0.0180102996055 5.0438481619214
8.682700000000001 0.0179576630719 15.176207935906 0.9998147718951 -79.97064415235 0.9998147718951 -79.97064415235 0.0179543986488 5.0291623807778
8.682750000000000 0.0179009192356 15.186349200292 0.9998154538803 -79.97436548171 0.9998154538803 -79.97436548171 0.0178975985270 5.0141868679252
8.682800000000000 0.0178432559585 15.196760689471 0.9998161408186 -79.97813972087 0.9998161408186 -79.97813972087 0.0178398772980 4.9989124467114
8.682850000000000 0.0177846506625 15.207452489033 0.9998168326799 -79.98196817158 0.9998168326799 -79.98196817158 0.0177812123162 4.9833295391291
8.682900000000000 0.0177250798598 15.218435203148 0.9998175294326 -79.98585218812 0.9998175294326 -79.98585218812 0.0177215800234 4.9674280950080
8.682950000000000 0.0176645195751 15.229719909647 0.9998182310341 -79.98979315306 0.9998182310341 -79.98979315306 0.0176609563700 4.9511976965688
8.683000000000000 0.0176029447591 15.241318309874 0.9998189374333 -79.99379251101 0.9998189374333 -79.99379251101 0.0175993162278 4.9346274009716
8.683050000000000 0.0175403296007 15.253242641518 0.9998196485834 -79.99785175061 0.9998196485834 -79.99785175061 0.0175366337047 4.9177057471219
8.683100000000001 0.0174766474868 15.265505795131 0.9998203644167 -80.00197240701 0.9998203644167 -80.00197240701 0.0174728821001 4.9004208040636
8.683150000000001 0.0174118707796 15.278121368466 0.9998210848538 -80.00615607459 0.9998210848538 -80.00615607459 0.0174080336837 4.8827600687695
8.683200000000001 0.0173459708737 15.291103618942 0.9998218098230 -80.01040440367 0.9998218098230 -80.01040440367 0.0173420597547 4.8647103857130
8.683250000000001 0.0172789183088 15.304467576389 0.9998225392289 -80.01471909418 0.9998225392289 -80.01471909418 0.0172749307505 4.8462580494900
8.683300000000001 0.0172106824621 15.318229097483 0.9998232729690 -80.01910191328 0.9998232729690 -80.01910191328 0.0172066159407 4.8273886465173
8.683350000000001 0.0171412316025 15.332404906072 0.9998240109303 -80.02355469229 0.9998240109303 -80.02355469229 0.0171370834803 4.8080870454478
8.683400000000001 0.0170705328322 15.347012649809 0.9998247529901 -80.02807933013 0.9998247529901 -80.02807933013 0.0170663003514 4.7883373448050
8.683450000000001 0.0169985522175 15.362070967455 0.9998254989998 -80.03267778578 0.9998254989998 -80.03267778578 0.0169942324922 4.7681229170540
8.683500000000000 0.0169252545148 15.377599525312 0.9998262488103 -80.03735209413 0.9998262488103 -80.03735209413 0.0169208445247 4.7474262180411
8.683550000000000 0.0168506030258 15.393619182556 0.9998270022506 -80.04210437428 0.9998270022506 -80.04210437428 0.0168460996071 4.7262287758916
8.683600000000000 0.0167745598180 15.410151951277 0.9998277591413 -80.04693681696 0.9998277591413 -80.04693681696 0.0167699596565 4.7045111473687
8.683650000000000 0.0166970855902 15.427221189359 0.9998285192680 -80.05185169236 0.9998285192680 -80.05185169236 0.0166923852094 4.6822529224839
8.683700000000000 0.0166181393761 15.444851646724 0.9998292824116 -80.05685136713 0.9998292824116 -80.05685136713 0.0166133351290 4.6594324877043
8.683750000000000 0.0165376788206 15.463069578568 0.9998300483181 -80.06193828867 0.9998300483181 -80.06193828867 0.0165327668773 4.6360271325985
8.683800000000000 0.0164556597850 15.481902823820 0.9998308167314 -80.06711500775 0.9998308167314 -80.06711500775 0.0164506361238 4.6120127677347
8.683850000000001 0.0163720364153 15.501381017615 0.9998315873549 -80.07238417484 0.9998315873549 -80.07238417484 0.0163668968078 4.5873639947205
8.683900000000001 0.0162867611480 15.521535638188 0.9998323598685 -80.07774853973 0.9998323598685 -80.07774853973 0.0162815011461 4.5620539663200
8.683950000000001 0.0161997843971 15.542400218288 0.9998331339254 -80.08321096970 0.9998331339254 -80.08321096970 0.0161943993185 4.5360542218460
8.684000000000001 0.0161110547378 15.564010424523 0.9998339091525 -80.08877443898 0.9998339091525 -80.08877443898 0.0161055396512 4.5093346333288
8.684050000000001 0.0160205184962 15.586404390816 0.9998346851282 -80.09444205261 0.9998346851282 -80.09444205261 0.0160148682009 4.4818632626280
8.684100000000001 0.0159281197959 15.609622741732 0.9998354614165 -80.10021704365 0.9998354614165 -80.10021704365 0.0159223288073 4.4536061284996
8.684150000000001 0.0158338005598 15.633708870382 0.9998362375379 -80.10610277342 0.9998362375379 -80.10610277342 0.0158278630878 4.4245271757153
8.684200000000001 0.0157375000807 15.658709331590 0.9998370129480 -80.11210275633 0.9998370129480 -80.11210275633 0.0157314100044 4.3945880851452
8.684250000000000 0.0156391553253 15.684673766188 0.9998377870929 -80.11822064241 0.9998377870929 -80.11822064241 0.0156329061746 4.3637479921793
8.684300000000000 0.0155387004289 15.711655499322 0.9998385593504 -80.12446024673 0.9998385593504 -80.12446024673 0.0155322853555 4.3319633764510
8.684350000000000 0.0154360666458 15.739711794030 0.9998393290376 -80.13082555245 0.9998393290376 -80.13082555245 0.0154294783929 4.2991878166306
8.684400000000000 0.0153311822555 15.768904085614 0.9998400954348 -80.13732071631 0.9998400954348 -80.13732071631 0.0153244131301 4.2653716508586
8.684450000000000 0.0152239724070 15.799298506738 0.9998408577450 -80.14395007802 0.9998408577450 -80.14395007802 0.0152170142436 4.2304618299467
8.684500000000000 0.0151143588049 15.830966250343 0.9998416151214 -80.15071817846 0.9998416151214 -80.15071817846 0.0151072029301 4.1944014441622
8.684550000000000 0.0150022597273 15.863984128232 0.9998423666271 -80.15762975912 0.9998423666271 -80.15762975912 0.0149948969167 4.1571295674571
8.684600000000000 0.0148875895243 15.898435106922 0.9998431112583 -80.16468979123 0.9998431112583 -80.16468979123 0.0148800099582 4.1185806708358
8.684650000000001 0.0147702588550 15.934408862110 0.9998438479150 -80.17190346258 0.9998438479150 -80.17190346258 0.0147624520679 4.0786844138877
8.684700000000001 0.0146501739858 15.972002522456 0.9998445754201 -80.17927621828 0.9998445754201 -80.17927621828 0.0146421288131 4.0373649177138
8.684750000000001 0.0145272370077 16.011321437250 0.9998452924740 -80.18681374896 0.9998452924740 -80.18681374896 0.0145189415221 3.9945405151274
8.684800000000001 0.0144013448704 16.052480046580 0.9998459977082 -80.19452204664 0.9998459977082 -80.19452204664 0.0143927863200 3.9501226734274
8.684850000000001 0.0142723900208 16.095602880366 0.9998466895924 -80.20240736904 0.9998466895924 -80.20240736904 0.0142635547485 3.9040159343523
8.684900000000001 0.0141402594606 16.140825638483 0.9998473664894 -80.21047629432 0.9998473664894 -80.21047629432 0.0141311328242 3.8561166789159
8.684950000000001 0.0140048343532 16.188296622809 0.9998480266109 -80.21873574469 0.9998480266109 -80.21873574469 0.0139954006301 3.8063123544813
8.685000000000000 0.0138659905235 16.238177796919 0.9998486680219 -80.22719295856 0.9998486680219 -80.22719295856 0.0138562328103 3.7544807073569
8.685050000000000 0.0137235966848 16.290646969236 0.9998492886240 -80.23585559383 0.9998492886240 -80.23585559383 0.0137134967795 3.7004881761950
8.685100000000000 0.0135775155060 16.345899161001 0.9998498861310 -80.24473166771 0.9998498861310 -80.24473166771 0.0135670537792 3.6441891545904
8.685150000000000 0.0134276021647 16.404149135057 0.9998504580580 -80.25382964158 0.9998504580580 -80.25382964158 0.0134167574118 3.5854241312425
8.685200000000000 0.0132737043625 16.465633712760 0.9998510017003 -80.26315842188 0.9998510017003 -80.26315842188 0.0132624536390 3.5240181743509
8.685250000000000 0.0131156615147 16.530614808720 0.9998515141067 -80.27272740880 0.9998515141067 -80.27272740880 0.0131039799467 3.4597788842653
8.685300000000000 0.0129533048484 16.599382356007 0.9998519920890 -80.28254649280 0.9998519920890 -80.28254649280 0.0129411654267 3.3924942394836
8.685350000000000 0.0127864555277 16.672258958178 0.9998524321505 -80.29262616572 0.9998524321505 -80.29262616572 0.0127738288591 3.3219296525364
8.685400000000001 0.0126149258592 16.749603480575 0.9998528304888 -80.30297745424 0.9998528304888 -80.30297745424 0.0126017798959 3.2478255029187
8.685450000000001 0.0124385170778 16.831817172116 0.9998531829389 -80.31361205158 0.9998531829389 -80.31361205158 0.0124248167952 3.1698930459064
8.685500000000001 0.0122570190931 16.919349535576 0.9998534849813 -80.32454233622 0.9998534849813 -80.32454233622 0.0122427261318 3.0878101801679
8.685550000000001 0.0120702103506 17.012705684517 0.9998537316451 -80.33578138570 0.9998537316451 -80.33578138570 0.0120552825910 3.0012170166842
8.685600000000001 0.0118778555071 17.112455571683 0.9998539175343 -80.34734311654 0.9998539175343 -80.34734311654 0.0118622465872 2.9097089735580
8.685650000000001 0.0116797066248 17.219243678026 0.9998540367268 -80.35924222334 0.9998540367268 -80.35924222334 0.0116633653740 2.8128309209104
8.685700000000001 0.0114755001380 17.333802853254 0.9998540826939 -80.37149436317 0.9998540826939 -80.37149436317 0.0114583699020 2.7100678882168
8.685750000000001 0.0112649572871 17.456968139456 0.9998540483688 -80.38411614079 0.9998540483688 -80.38411614079 0.0112469751695 2.6008349201479
8.685800000000000 0.0110477819154 17.589696581010 0.9998539259421 -80.39712525038 0.9998539259421 -80.39712525038 0.0110288778445 2.4844647834490
8.685850000000000 0.0108236602180 17.733089125115 0.9998537068272 -80.41054050640 0.9998537068272 -80.41054050640 0.0108037558543 2.3601930838038
8.685900000000000 0.0105922587552 17.888418795683 0.9998533816012 -80.42438197884 0.9998533816012 -80.42438197884 0.0105712661882 2.2271390801013
8.685950000000000 0.0103532234848 18.057165148209 0.9998529398854 -80.43867107497 0.9998529398854 -80.43867107497 0.0103310436630 2.0842828308253
8.686000000000000 0.0101061782338 18.241057350118 0.9998523702710 -80.45343065961 0.9998523702710 -80.45343065961 0.0100826990726 1.9304359753757
8.686050000000000 0.0098507231589 18.442129007467 0.9998516601366 -80.46868518546 0.9998516601366 -80.46868518546 0.0098258172183 1.7642054549839
8.686100000000000 0.0095864334103 18.662786813552 0.9998507955902 -80.48446082187 0.9998507955902 -80.48446082187 0.0095599550645 1.5839466198084
8.686150000000001 0.0093128571882 18.905900364893 0.9998497612208 -80.50078563525 0.9998497612208 -80.50078563525 0.0092846390905 1.3877035279647
8.686200000000001 0.0090295152879 19.174916358015 0.9998485399848 -80.51768970260 0.9998485399848 -80.51768970260 0.0089993639752 1.1731313644753
8.686250000000001 0.0087358985596 19.474011296588 0.9998471129908 -80.53520537449 0.9998471129908 -80.53520537449 0.0087035888891 0.9373929558874
8.686300000000001 0.0084314675150 19.808292973655 0.9998454592106 -80.55336745301 0.9998454592106 -80.55336745301 0.0083967355456 0.6770225732735
8.686350000000001 0.0081156519435 20.184071286132 0.9998435553487 -80.57221342263 0.9998435553487 -80.57221342263 0.0080781857773 0.3877396671607
8.686400000000001 0.0077878510575 20.609231717459 0.9998413753809 -80.59178373183 0.9998413753809 -80.59178373183 0.0077472787878 0.0641943753601
8.686450000000001 0.0074474361009 21.093751980831 0.9998388902823 -80.61212204536 0.9998388902823 -80.61212204536 0.0074033098223 -0.300389781021
8.686500000000001 0.0070937533916 21.650438206154 0.9998360676460 -80.63327564494 0.9998360676460 -80.63327564494 0.0070455275853 -0.714728455858
8.686550000000000 0.0067261327817 22.295989803161 0.9998328711155 -80.65529578128 0.9998328711155 -80.65529578128 0.0066731345232 -1.190222775839
8.686600000000000 0.0063439021862 23.052575722537 0.9998292600107 -80.67823808665 0.9998292600107 -80.67823808665 0.0062852893411 -1.742081399219
8.686650000000000 0.0059464134132 23.950235450840 0.9998251884438 -80.70216300889 0.9998251884438 -80.70216300889 0.0058811143904 -2.391047670865
8.686700000000000 0.0055330835616 25.030641884812 0.9998206048745 -80.72713646488 0.9998206048745 -80.72713646488 0.0054597084157 -3.166168452931
8.686750000000000 0.0051034728498 26.353193595688 0.9998154510077 -80.75323034716 0.9998154510077 -80.75323034716 0.0050201778267 -4.109376256608
8.686800000000000 0.0046574194402 28.005267751711 0.9998096609228 -80.78052329593 0.9998096609228 -80.78052329593 0.0045616935931 -5.283465274711
8.686850000000000 0.0041952920634 30.120211339862 0.9998031598213 -80.80910149106 0.9998031598213 -80.80910149106 0.0040836077072 -6.786722631765
8.686900000000001 0.0037184806152 32.910408629207 0.9997958626699 -80.83905956936 0.9997958626699 -80.83905956936 0.0035856959942 -8.781601149290
8.686950000000001 0.0032304065217 36.730993477070 0.9997876724841 -80.87050166377 0.9997876724841 -80.87050166377 0.0030687004388 -11.55555138385
8.687000000000001 0.0027387460008 42.207176415410 0.9997784782728 -80.90354265670 0.9997784782728 -80.90354265670 0.0025356613924 -15.66311834148
8.687050000000001 0.0022606548921 50.484630245793 0.9997681529163 -80.93830961250 0.9997681529163 -80.93830961250 0.0019956519491 -22.29639106799
8.687100000000001 0.0018352656435 63.604464245282 0.9997565500711 -80.97494341729 0.9997565500711 -80.97494341729 0.0014760691196 -34.33522204801
8.687150000000001 0.0015476206531 84.127541552791 0.9997435006951 -81.01360072296 0.9997435006951 -81.01360072296 0.0010672329816 -58.60058013122
8.687200000000001 0.0015279935226 110.58640790095 0.9997288092108 -81.05445615804 0.9997288092108 -81.05445615804 0.0010030198710 -98.31901701777
8.687250000000001 0.0018321869176 134.07000633580 0.9997122480198 -81.09770503740 0.9997122480198 -81.09770503740 0.0013960907896 -129.4989746516
8.687300000000000 0.0023797625029 149.79753637061 0.9996935515752 -81.14356659395 0.9996935515752 -81.14356659395 0.0020417986404 -145.1917698644
8.687350000000000 0.0030812788498 159.63396290056 0.9996724085477 -81.19228753275 0.9996724085477 -81.19228753275 0.0028116109470 -153.4354265928
8.687400000000000 0.0038907104378 165.99468132526 0.9996484526545 -81.24414664636 0.9996484526545 -81.24414664636 0.0036666477053 -158.3464609936
8.687450000000000 0.0047894656372 170.32907606908 0.9996212502225 -81.29946020888 0.9996212502225 -81.29946020888 0.0045968217128 -161.5805168257
8.687500000000000 0.0057719589815 173.42520817308 0.9995902860550 -81.35858836244 0.9995902860550 -81.35858836244 0.0056018040756 -163.8730220623
8.687550000000000 0.0068390903441 175.72228682968 0.9995549441587 -81.42194315264 0.9995549441587 -81.42194315264 0.0066855645892 -165.5907844816
8.687600000000000 0.0079955430483 177.47748396821 0.9995144843000 -81.48999799195 0.9995144843000 -81.48999799195 0.0078546244469 -166.9350734828
8.687650000000001 0.0092487014580 178.84902908155 0.9994680106960 -81.56329986883 0.9994680106960 -81.56329986883 0.0091175119747 -168.0250555557
8.687700000000001 0.0106082739465 179.93860312260 0.9994144330665 -81.64248364893 0.9994144330665 -81.64248364893 0.0104846749242 -168.9357563621
8.687750000000001 0.0120863017294 -179.1860225637 0.9993524140045 -81.72829112915 0.9993524140045 -81.72829112915 0.0119686478578 -169.7169144226
8.687800000000001 0.0136973816820 -178.4783409000 0.9992803005847 -81.82159394251 0.9992803005847 -81.82159394251 0.0135843649771 -170.4030184429
8.687850000000001 0.0154590862694 -177.9057256774 0.9991960325460 -81.92342344701 0.9991960325460 -81.92342344701 0.0153496330720 -171.0189978890
8.687900000000001 0.0173925715279 -177.4449684233 0.9990970181779 -82.03500904316 0.9990970181779 -82.03500904316 0.0172857716461 -171.5836218119
8.687950000000001 0.0195234055097 -177.0795021866 0.9989799647374 -82.15782778881 0.9989799647374 -82.15782778881 0.0194184612982 -172.1116328978
8.688000000000001 0.0218826973905 -176.7976438735 0.9988406415908 -82.29367044375 0.9988406415908 -82.29367044375 0.0217788852023 -172.6151648639
8.688050000000000 0.0245086016513 -176.5914825071 0.9986735482264 -82.44472851453 0.9986735482264 -82.44472851453 0.0244052409046 -173.1047344543
8.688100000000000 0.0274483825427 -176.4562034261 0.9984714351375 -82.61371307650 0.9984714351375 -82.61371307650 0.0273448088415 -173.5900045969
8.688150000000000 0.0307612611668 -176.3897284729 0.9982246044365 -82.80401823358 0.9982246044365 -82.80401823358 0.0306568009584 -174.0804267497
8.688200000000000 0.0345223963130 -176.3926241462 0.9979198636815 -83.01994939650 0.9979198636815 -83.01994939650 0.0344163405227 -174.5858600147
8.688250000000000 0.0388285803857 -176.4682629178 0.9975389269029 -83.26704977942 0.9975389269029 -83.26704977942 0.0387201545910 -175.1172484419
8.688300000000000 0.0438065734169 -176.6232879706 0.9970558973131 -83.55257808617 0.9970558973131 -83.55257808617 0.0436949011022 -175.6874664821
8.688350000000000 0.0496255804469 -176.8684768830 0.9964331923818 -83.88622386894 0.9964331923818 -83.88622386894 0.0495096348920 -176.3124660562
8.688400000000000 0.0565164634143 -177.2202172313 0.9956147043330 -84.28120946876 0.9956147043330 -84.28120946876 0.0563950008339 -177.0129657012
8.688450000000001 0.0648023970789 -177.7029703084 0.9945138528004 -84.75604953967 0.9945138528004 -84.75604953967 0.0646738594670 -177.8170804330
8.688500000000001 0.0749495230669 -178.3534674488 0.9929917073356 -85.33746104105 0.9929917073356 -85.33746104105 0.0748118901057 -178.7646441875
8.688550000000001 0.0876546162446 -179.2281047593 0.9908146198893 -86.06540588399 0.9908146198892 -86.06540588399 0.0875051690692 -179.9147051490
8.688600000000001 0.1040047655369 179.58334246947 0.9875664786241 -87.00229179657 0.9875664786241 -87.00229179657 0.1038396899573 178.64068148686
8.688650000000001 0.1257868541953 177.93055829981 0.9824513755048 -88.25084696762 0.9824513755048 -88.25084696762 0.1256005338354 176.74922855793
8.688700000000001 0.1561319328596 175.54429515146 0.9738020701141 -89.99145486785 0.9738020701141 -89.99145486785 0.1559156011756 174.13997574362
8.688750000000001 0.2009685649294 171.89717724435 0.9576865905266 -92.56664954584 0.9576865905265 -92.56664954584 0.2007075269475 170.28405216005
8.688800000000001 0.2725242858472 165.82763663139 0.9232625494657 -96.68412086352 0.9232625494658 -96.68412086353 0.2721917688827 164.01857876870
8.688850000000000 0.3969468166458 154.39171099929 0.8342983308983 -103.8137353111 0.8342983308982 -103.8137353111 0.3964909825860 152.39843862622
8.688900000000000 0.6034544436341 129.81844432246 0.5629401729564 -113.2134964309 0.5629401729565 -113.2134964309 0.6028010581098 127.65165523626
8.688950000000000 0.6883896277801 86.821825341602 0.3662865025622 -55.47458214161 0.3662865025622 -55.47458214161 0.6876856638656 84.491311670359
8.689000000000000 0.5016345873297 54.450971718567 0.7426239373839 -52.14026744005 0.7426239373840 -52.14026744005 0.5011493048210 51.965719398938
8.689050000000000 0.3547790922388 39.358661472321 0.8836530065763 -60.52815537167 0.8836530065763 -60.52815537167 0.3544539157884 36.726936298138
8.689100000000000 0.2702645460833 31.756427871286 0.9357333838661 -65.46645331688 0.9357333838661 -65.46645331687 0.2700295110525 28.985850392826
8.689150000000000 0.2185860681413 27.349447134578 0.9593243431037 -68.47324571077 0.9593243431037 -68.47324571077 0.2184054566976 24.447057955261
8.689200000000001 0.1843615873992 24.517614491208 0.9718090712463 -70.45702644525 0.9718090712463 -70.45702644525 0.1842166634755 21.489931834563
8.689250000000001 0.1602074790282 22.561889866612 0.9791833277700 -71.85359933964 0.9791833277700 -71.85359933964 0.1600875181770 19.414959712440
8.689300000000001 0.1423132031928 21.139111602747 0.9838998022939 -72.88653340227 0.9838998022939 -72.88653340227 0.1422115773340 17.878552499626
8.689350000000001 0.1285509086144 20.062975575009 0.9871020226060 -73.68007532773 0.9871020226059 -73.68007532773 0.1284632634326 16.694017612717
8.689400000000001 0.1176498324362 19.224189910778 0.9893790460903 -74.30816627929 0.9893790460903 -74.30816627929 0.1175731655597 15.751710059424
8.689450000000001 0.1088079095501 18.554622125848 0.9910588334353 -74.81735536934 0.9910588334353 -74.81735536934 0.1087400689356 14.983175077802
8.689500000000001 0.1014954123338 18.009686638604 0.9923356343944 -75.23832657763 0.9923356343944 -75.23832657763 0.1014348059021 14.343532683628
8.689550000000001 0.0953490312552 17.559027811938 0.9933304476681 -75.59209281769 0.9933304476681 -75.59209281769 0.0952944499681 13.802157594757
8.689600000000000 0.0901115892092 17.181289579417 0.9941218531930 -75.89351105460 0.9941218531931 -75.89351105460 0.0900620944937 13.337446434166
8.689650000000000 0.0855960702948 16.861025356403 0.9947627082128 -76.15337485976 0.9947627082128 -76.15337485976 0.0855509198128 12.933725272052
8.689700000000000 0.0816633022677 16.586797209708 0.9952896466113 -76.37971031277 0.9952896466113 -76.37971031277 0.0816218993665 12.579346826289
8.689750000000000 0.0782076321739 16.349962164422 0.9957287214116 -76.57860652834 0.9957287214116 -76.57860652834 0.0781694905557 12.265475264855
8.689800000000000 0.0751474155908 16.143872149440 0.9960988835725 -76.75476639980 0.9960988835725 -76.75476639980 0.0751121340163 11.985284089193
8.689850000000000 0.0724185962557 15.963334445150 0.9964141913694 -76.91187801939 0.9964141913694 -76.91187801939 0.0723858400669 11.733415711473
8.689900000000000 0.0699702135771 15.804236374008 0.9966852587142 -77.05287433419 0.9966852587142 -77.05287433419 0.0699397009635 11.505604645144
8.689950000000001 0.0677612256058 15.663281250230 0.9969202241778 -77.18011664065 0.9969202241778 -77.18011664065 0.0677327171945 11.298412390260
8.690000000000001 0.0657582148282 15.537797013404 0.9971254165586 -77.29552700385 0.9971254165586 -77.29552700385 0.0657315057220 11.109035188949
8.690050000000001 0.0639336965319 15.425596673067 0.9973058195805 -77.40068584328 0.9973058195805 -77.40068584328 0.0639086101043 10.935163500090