! Sonnet Data File
! From: emgraph Version : 16.52
! From Project: 171117_Xmon_fullysym
! Data is De-embedded 
! Data File Written: 11/27/2017 00:27:55
!< HDATE 11/26/2017 21:47:59
!< MDATE 11/26/2017 21:47:59
!< PARAMS
!< Lj = 11.0
!< Gap = 1.0
!< Pwid = 2000.0
!< Airgap = 6.0
!< Width = 10.0
!< Lj1 = 10.62
!< END PARAMS
# GHZ S MA R 50.90000
8.76000000 0.023263 -3.508 0.999725 -80.63 0.999725 -80.63 0.023265 22.257
!< P1 F=8.76 Eeff=(6.44841381 -2.9796e-5) Z0=(50.9085048 1.17026e-4) R=0.0 C=0.0 
!< P2 F=8.76 Eeff=(6.44841381 -2.9796e-5) Z0=(50.9085048 1.17026e-4) R=0.0 C=0.0 
8.76005000 0.023261 -3.510 0.999725 -80.63 0.999725 -80.63 0.023262 22.258
8.76010000 0.023258 -3.513 0.999725 -80.63 0.999725 -80.63 0.023259 22.259
8.76015000 0.023255 -3.515 0.999725 -80.64 0.999725 -80.64 0.023257 22.261
8.76020000 0.023252 -3.517 0.999725 -80.64 0.999725 -80.64 0.023254 22.262
8.76025000 0.023250 -3.520 0.999725 -80.64 0.999725 -80.64 0.023251 22.263
8.76030000 0.023247 -3.522 0.999725 -80.64 0.999725 -80.64 0.023249 22.264
8.76035000 0.023244 -3.525 0.999725 -80.64 0.999725 -80.64 0.023246 22.265
8.76040000 0.023242 -3.527 0.999726 -80.64 0.999726 -80.64 0.023243 22.266
8.76045000 0.023239 -3.529 0.999726 -80.64 0.999726 -80.64 0.023240 22.268
8.76050000 0.023236 -3.532 0.999726 -80.64 0.999726 -80.64 0.023238 22.269
8.76055000 0.023233 -3.534 0.999726 -80.64 0.999726 -80.64 0.023235 22.270
8.76060000 0.023230 -3.537 0.999726 -80.64 0.999726 -80.64 0.023232 22.271
8.76065000 0.023228 -3.539 0.999726 -80.64 0.999726 -80.64 0.023229 22.272
8.76070000 0.023225 -3.542 0.999726 -80.64 0.999726 -80.64 0.023226 22.273
8.76075000 0.023222 -3.544 0.999726 -80.64 0.999726 -80.64 0.023224 22.275
8.76080000 0.023219 -3.546 0.999726 -80.64 0.999726 -80.64 0.023221 22.276
8.76085000 0.023216 -3.549 0.999726 -80.64 0.999726 -80.64 0.023218 22.277
8.76090000 0.023214 -3.551 0.999726 -80.64 0.999726 -80.64 0.023215 22.278
8.76095000 0.023211 -3.554 0.999726 -80.65 0.999726 -80.65 0.023212 22.279
8.76100000 0.023208 -3.556 0.999726 -80.65 0.999726 -80.65 0.023210 22.281
8.76105000 0.023205 -3.559 0.999726 -80.65 0.999726 -80.65 0.023207 22.282
8.76110000 0.023202 -3.561 0.999726 -80.65 0.999726 -80.65 0.023204 22.283
8.76115000 0.023199 -3.564 0.999726 -80.65 0.999726 -80.65 0.023201 22.284
8.76120000 0.023197 -3.566 0.999727 -80.65 0.999727 -80.65 0.023198 22.286
8.76125000 0.023194 -3.569 0.999727 -80.65 0.999727 -80.65 0.023195 22.287
8.76130000 0.023191 -3.571 0.999727 -80.65 0.999727 -80.65 0.023192 22.288
8.76135000 0.023188 -3.574 0.999727 -80.65 0.999727 -80.65 0.023190 22.289
8.76140000 0.023185 -3.576 0.999727 -80.65 0.999727 -80.65 0.023187 22.291
8.76145000 0.023182 -3.579 0.999727 -80.65 0.999727 -80.65 0.023184 22.292
8.76150000 0.023179 -3.581 0.999727 -80.65 0.999727 -80.65 0.023181 22.293
8.76155000 0.023176 -3.584 0.999727 -80.65 0.999727 -80.65 0.023178 22.294
8.76160000 0.023174 -3.586 0.999727 -80.65 0.999727 -80.65 0.023175 22.296
8.76165000 0.023171 -3.589 0.999727 -80.65 0.999727 -80.65 0.023172 22.297
8.76170000 0.023168 -3.591 0.999727 -80.65 0.999727 -80.65 0.023169 22.298
8.76175000 0.023165 -3.594 0.999727 -80.66 0.999727 -80.66 0.023166 22.299
8.76180000 0.023162 -3.596 0.999727 -80.66 0.999727 -80.66 0.023163 22.301
8.76185000 0.023159 -3.599 0.999727 -80.66 0.999727 -80.66 0.023160 22.302
8.76190000 0.023156 -3.601 0.999727 -80.66 0.999727 -80.66 0.023158 22.303
8.76195000 0.023153 -3.604 0.999728 -80.66 0.999728 -80.66 0.023155 22.305
8.76200000 0.023150 -3.607 0.999728 -80.66 0.999728 -80.66 0.023152 22.306
8.76205000 0.023147 -3.609 0.999728 -80.66 0.999728 -80.66 0.023149 22.307
8.76210000 0.023144 -3.612 0.999728 -80.66 0.999728 -80.66 0.023146 22.309
8.76215000 0.023141 -3.614 0.999728 -80.66 0.999728 -80.66 0.023143 22.310
8.76220000 0.023138 -3.617 0.999728 -80.66 0.999728 -80.66 0.023140 22.311
8.76225000 0.023135 -3.620 0.999728 -80.66 0.999728 -80.66 0.023137 22.313
8.76230000 0.023132 -3.622 0.999728 -80.66 0.999728 -80.66 0.023134 22.314
8.76235000 0.023129 -3.625 0.999728 -80.66 0.999728 -80.66 0.023131 22.315
8.76240000 0.023126 -3.627 0.999728 -80.66 0.999728 -80.66 0.023128 22.317
8.76245000 0.023123 -3.630 0.999728 -80.66 0.999728 -80.66 0.023125 22.318
8.76250000 0.023120 -3.633 0.999728 -80.66 0.999728 -80.66 0.023122 22.319
8.76255000 0.023117 -3.635 0.999728 -80.67 0.999728 -80.67 0.023118 22.321
8.76260000 0.023114 -3.638 0.999728 -80.67 0.999728 -80.67 0.023115 22.322
8.76265000 0.023111 -3.640 0.999728 -80.67 0.999728 -80.67 0.023112 22.323
8.76270000 0.023108 -3.643 0.999729 -80.67 0.999729 -80.67 0.023109 22.325
8.76275000 0.023105 -3.646 0.999729 -80.67 0.999729 -80.67 0.023106 22.326
8.76280000 0.023102 -3.648 0.999729 -80.67 0.999729 -80.67 0.023103 22.328
8.76285000 0.023098 -3.651 0.999729 -80.67 0.999729 -80.67 0.023100 22.329
8.76290000 0.023095 -3.654 0.999729 -80.67 0.999729 -80.67 0.023097 22.330
8.76295000 0.023092 -3.656 0.999729 -80.67 0.999729 -80.67 0.023094 22.332
8.76300000 0.023089 -3.659 0.999729 -80.67 0.999729 -80.67 0.023091 22.333
8.76305000 0.023086 -3.662 0.999729 -80.67 0.999729 -80.67 0.023088 22.335
8.76310000 0.023083 -3.665 0.999729 -80.67 0.999729 -80.67 0.023084 22.336
8.76315000 0.023080 -3.667 0.999729 -80.67 0.999729 -80.67 0.023081 22.337
8.76320000 0.023077 -3.670 0.999729 -80.67 0.999729 -80.67 0.023078 22.339
8.76325000 0.023073 -3.673 0.999729 -80.67 0.999729 -80.67 0.023075 22.340
8.76330000 0.023070 -3.675 0.999729 -80.68 0.999729 -80.68 0.023072 22.342
8.76335000 0.023067 -3.678 0.999729 -80.68 0.999729 -80.68 0.023069 22.343
8.76340000 0.023064 -3.681 0.999729 -80.68 0.999729 -80.68 0.023065 22.345
8.76345000 0.023061 -3.684 0.999730 -80.68 0.999730 -80.68 0.023062 22.346
8.76350000 0.023057 -3.686 0.999730 -80.68 0.999730 -80.68 0.023059 22.347
8.76355000 0.023054 -3.689 0.999730 -80.68 0.999730 -80.68 0.023056 22.349
8.76360000 0.023051 -3.692 0.999730 -80.68 0.999730 -80.68 0.023053 22.350
8.76365000 0.023048 -3.695 0.999730 -80.68 0.999730 -80.68 0.023049 22.352
8.76370000 0.023045 -3.697 0.999730 -80.68 0.999730 -80.68 0.023046 22.353
8.76375000 0.023041 -3.700 0.999730 -80.68 0.999730 -80.68 0.023043 22.355
8.76380000 0.023038 -3.703 0.999730 -80.68 0.999730 -80.68 0.023040 22.356
8.76385000 0.023035 -3.706 0.999730 -80.68 0.999730 -80.68 0.023036 22.358
8.76390000 0.023032 -3.709 0.999730 -80.68 0.999730 -80.68 0.023033 22.359
8.76395000 0.023028 -3.711 0.999730 -80.68 0.999730 -80.68 0.023030 22.361
8.76400000 0.023025 -3.714 0.999730 -80.68 0.999730 -80.68 0.023027 22.362
8.76405000 0.023022 -3.717 0.999730 -80.69 0.999730 -80.69 0.023023 22.364
8.76410000 0.023018 -3.720 0.999730 -80.69 0.999730 -80.69 0.023020 22.365
8.76415000 0.023015 -3.723 0.999731 -80.69 0.999731 -80.69 0.023017 22.367
8.76420000 0.023012 -3.726 0.999731 -80.69 0.999731 -80.69 0.023013 22.369
8.76425000 0.023008 -3.728 0.999731 -80.69 0.999731 -80.69 0.023010 22.370
8.76430000 0.023005 -3.731 0.999731 -80.69 0.999731 -80.69 0.023007 22.372
8.76435000 0.023002 -3.734 0.999731 -80.69 0.999731 -80.69 0.023003 22.373
8.76440000 0.022998 -3.737 0.999731 -80.69 0.999731 -80.69 0.023000 22.375
8.76445000 0.022995 -3.740 0.999731 -80.69 0.999731 -80.69 0.022997 22.376
8.76450000 0.022992 -3.743 0.999731 -80.69 0.999731 -80.69 0.022993 22.378
8.76455000 0.022988 -3.746 0.999731 -80.69 0.999731 -80.69 0.022990 22.379
8.76460000 0.022985 -3.749 0.999731 -80.69 0.999731 -80.69 0.022986 22.381
8.76465000 0.022981 -3.751 0.999731 -80.69 0.999731 -80.69 0.022983 22.383
8.76470000 0.022978 -3.754 0.999731 -80.69 0.999731 -80.69 0.022980 22.384
8.76475000 0.022975 -3.757 0.999731 -80.69 0.999731 -80.69 0.022976 22.386
8.76480000 0.022971 -3.760 0.999732 -80.70 0.999732 -80.70 0.022973 22.388
8.76485000 0.022968 -3.763 0.999732 -80.70 0.999732 -80.70 0.022969 22.389
8.76490000 0.022964 -3.766 0.999732 -80.70 0.999732 -80.70 0.022966 22.391
8.76495000 0.022961 -3.769 0.999732 -80.70 0.999732 -80.70 0.022962 22.392
8.76500000 0.022957 -3.772 0.999732 -80.70 0.999732 -80.70 0.022959 22.394
8.76505000 0.022954 -3.775 0.999732 -80.70 0.999732 -80.70 0.022956 22.396
8.76510000 0.022950 -3.778 0.999732 -80.70 0.999732 -80.70 0.022952 22.397
8.76515000 0.022947 -3.781 0.999732 -80.70 0.999732 -80.70 0.022949 22.399
8.76520000 0.022943 -3.784 0.999732 -80.70 0.999732 -80.70 0.022945 22.401
8.76525000 0.022940 -3.787 0.999732 -80.70 0.999732 -80.70 0.022942 22.402
8.76530000 0.022936 -3.790 0.999732 -80.70 0.999732 -80.70 0.022938 22.404
8.76535000 0.022933 -3.793 0.999732 -80.70 0.999732 -80.70 0.022934 22.406
8.76540000 0.022929 -3.796 0.999732 -80.70 0.999732 -80.70 0.022931 22.407
8.76545000 0.022926 -3.799 0.999733 -80.70 0.999733 -80.70 0.022927 22.409
8.76550000 0.022922 -3.802 0.999733 -80.70 0.999733 -80.70 0.022924 22.411
8.76555000 0.022918 -3.805 0.999733 -80.71 0.999733 -80.71 0.022920 22.413
8.76560000 0.022915 -3.808 0.999733 -80.71 0.999733 -80.71 0.022917 22.414
8.76565000 0.022911 -3.811 0.999733 -80.71 0.999733 -80.71 0.022913 22.416
8.76570000 0.022908 -3.814 0.999733 -80.71 0.999733 -80.71 0.022909 22.418
8.76575000 0.022904 -3.817 0.999733 -80.71 0.999733 -80.71 0.022906 22.419
8.76580000 0.022900 -3.820 0.999733 -80.71 0.999733 -80.71 0.022902 22.421
8.76585000 0.022897 -3.824 0.999733 -80.71 0.999733 -80.71 0.022898 22.423
8.76590000 0.022893 -3.827 0.999733 -80.71 0.999733 -80.71 0.022895 22.425
8.76595000 0.022889 -3.830 0.999733 -80.71 0.999733 -80.71 0.022891 22.427
8.76600000 0.022886 -3.833 0.999733 -80.71 0.999733 -80.71 0.022888 22.428
8.76605000 0.022882 -3.836 0.999733 -80.71 0.999733 -80.71 0.022884 22.430
8.76610000 0.022878 -3.839 0.999734 -80.71 0.999734 -80.71 0.022880 22.432
8.76615000 0.022875 -3.842 0.999734 -80.71 0.999734 -80.71 0.022876 22.434
8.76620000 0.022871 -3.845 0.999734 -80.71 0.999734 -80.71 0.022873 22.436
8.76625000 0.022867 -3.849 0.999734 -80.71 0.999734 -80.71 0.022869 22.437
8.76630000 0.022863 -3.852 0.999734 -80.72 0.999734 -80.72 0.022865 22.439
8.76635000 0.022860 -3.855 0.999734 -80.72 0.999734 -80.72 0.022861 22.441
8.76640000 0.022856 -3.858 0.999734 -80.72 0.999734 -80.72 0.022858 22.443
8.76645000 0.022852 -3.861 0.999734 -80.72 0.999734 -80.72 0.022854 22.445
8.76650000 0.022848 -3.865 0.999734 -80.72 0.999734 -80.72 0.022850 22.447
8.76655000 0.022845 -3.868 0.999734 -80.72 0.999734 -80.72 0.022846 22.448
8.76660000 0.022841 -3.871 0.999734 -80.72 0.999734 -80.72 0.022843 22.450
8.76665000 0.022837 -3.874 0.999734 -80.72 0.999734 -80.72 0.022839 22.452
8.76670000 0.022833 -3.877 0.999735 -80.72 0.999735 -80.72 0.022835 22.454
8.76675000 0.022829 -3.881 0.999735 -80.72 0.999735 -80.72 0.022831 22.456
8.76680000 0.022825 -3.884 0.999735 -80.72 0.999735 -80.72 0.022827 22.458
8.76685000 0.022822 -3.887 0.999735 -80.72 0.999735 -80.72 0.022823 22.460
8.76690000 0.022818 -3.891 0.999735 -80.72 0.999735 -80.72 0.022819 22.462
8.76695000 0.022814 -3.894 0.999735 -80.72 0.999735 -80.72 0.022816 22.464
8.76700000 0.022810 -3.897 0.999735 -80.72 0.999735 -80.72 0.022812 22.466
8.76705000 0.022806 -3.900 0.999735 -80.73 0.999735 -80.73 0.022808 22.467
8.76710000 0.022802 -3.904 0.999735 -80.73 0.999735 -80.73 0.022804 22.469
8.76715000 0.022798 -3.907 0.999735 -80.73 0.999735 -80.73 0.022800 22.471
8.76720000 0.022794 -3.910 0.999735 -80.73 0.999735 -80.73 0.022796 22.473
8.76725000 0.022790 -3.914 0.999735 -80.73 0.999735 -80.73 0.022792 22.475
8.76730000 0.022786 -3.917 0.999736 -80.73 0.999736 -80.73 0.022788 22.477
8.76735000 0.022782 -3.920 0.999736 -80.73 0.999736 -80.73 0.022784 22.479
8.76740000 0.022778 -3.924 0.999736 -80.73 0.999736 -80.73 0.022780 22.481
8.76745000 0.022774 -3.927 0.999736 -80.73 0.999736 -80.73 0.022776 22.483
8.76750000 0.022770 -3.931 0.999736 -80.73 0.999736 -80.73 0.022772 22.485
8.76755000 0.022766 -3.934 0.999736 -80.73 0.999736 -80.73 0.022768 22.487
8.76760000 0.022762 -3.937 0.999736 -80.73 0.999736 -80.73 0.022764 22.489
8.76765000 0.022758 -3.941 0.999736 -80.73 0.999736 -80.73 0.022760 22.491
8.76770000 0.022754 -3.944 0.999736 -80.73 0.999736 -80.73 0.022756 22.494
8.76775000 0.022750 -3.948 0.999736 -80.74 0.999736 -80.74 0.022752 22.496
8.76780000 0.022746 -3.951 0.999736 -80.74 0.999736 -80.74 0.022748 22.498
8.76785000 0.022742 -3.955 0.999736 -80.74 0.999736 -80.74 0.022743 22.500
8.76790000 0.022737 -3.958 0.999737 -80.74 0.999737 -80.74 0.022739 22.502
8.76795000 0.022733 -3.962 0.999737 -80.74 0.999737 -80.74 0.022735 22.504
8.76800000 0.022729 -3.965 0.999737 -80.74 0.999737 -80.74 0.022731 22.506
8.76805000 0.022725 -3.969 0.999737 -80.74 0.999737 -80.74 0.022727 22.508
8.76810000 0.022721 -3.972 0.999737 -80.74 0.999737 -80.74 0.022723 22.510
8.76815000 0.022717 -3.976 0.999737 -80.74 0.999737 -80.74 0.022719 22.512
8.76820000 0.022712 -3.979 0.999737 -80.74 0.999737 -80.74 0.022714 22.515
8.76825000 0.022708 -3.983 0.999737 -80.74 0.999737 -80.74 0.022710 22.517
8.76830000 0.022704 -3.986 0.999737 -80.74 0.999737 -80.74 0.022706 22.519
8.76835000 0.022700 -3.990 0.999737 -80.74 0.999737 -80.74 0.022702 22.521
8.76840000 0.022695 -3.994 0.999737 -80.74 0.999737 -80.74 0.022697 22.523
8.76845000 0.022691 -3.997 0.999738 -80.75 0.999738 -80.75 0.022693 22.526
8.76850000 0.022687 -4.001 0.999738 -80.75 0.999738 -80.75 0.022689 22.528
8.76855000 0.022683 -4.004 0.999738 -80.75 0.999738 -80.75 0.022684 22.530
8.76860000 0.022678 -4.008 0.999738 -80.75 0.999738 -80.75 0.022680 22.532
8.76865000 0.022674 -4.012 0.999738 -80.75 0.999738 -80.75 0.022676 22.534
8.76870000 0.022670 -4.015 0.999738 -80.75 0.999738 -80.75 0.022671 22.537
8.76875000 0.022665 -4.019 0.999738 -80.75 0.999738 -80.75 0.022667 22.539
8.76880000 0.022661 -4.023 0.999738 -80.75 0.999738 -80.75 0.022663 22.541
8.76885000 0.022656 -4.026 0.999738 -80.75 0.999738 -80.75 0.022658 22.544
8.76890000 0.022652 -4.030 0.999738 -80.75 0.999738 -80.75 0.022654 22.546
8.76895000 0.022648 -4.034 0.999739 -80.75 0.999739 -80.75 0.022649 22.548
8.76900000 0.022643 -4.038 0.999739 -80.75 0.999739 -80.75 0.022645 22.550
8.76905000 0.022639 -4.041 0.999739 -80.75 0.999739 -80.75 0.022641 22.553
8.76910000 0.022634 -4.045 0.999739 -80.75 0.999739 -80.75 0.022636 22.555
8.76915000 0.022630 -4.049 0.999739 -80.76 0.999739 -80.76 0.022632 22.557
8.76920000 0.022625 -4.053 0.999739 -80.76 0.999739 -80.76 0.022627 22.560
8.76925000 0.022621 -4.057 0.999739 -80.76 0.999739 -80.76 0.022623 22.562
8.76930000 0.022616 -4.060 0.999739 -80.76 0.999739 -80.76 0.022618 22.565
8.76935000 0.022612 -4.064 0.999739 -80.76 0.999739 -80.76 0.022613 22.567
8.76940000 0.022607 -4.068 0.999739 -80.76 0.999739 -80.76 0.022609 22.569
8.76945000 0.022602 -4.072 0.999739 -80.76 0.999739 -80.76 0.022604 22.572
8.76950000 0.022598 -4.076 0.999740 -80.76 0.999740 -80.76 0.022600 22.574
8.76955000 0.022593 -4.080 0.999740 -80.76 0.999740 -80.76 0.022595 22.577
8.76960000 0.022589 -4.083 0.999740 -80.76 0.999740 -80.76 0.022591 22.579
8.76965000 0.022584 -4.087 0.999740 -80.76 0.999740 -80.76 0.022586 22.582
8.76970000 0.022579 -4.091 0.999740 -80.76 0.999740 -80.76 0.022581 22.584
8.76975000 0.022575 -4.095 0.999740 -80.76 0.999740 -80.76 0.022577 22.586
8.76980000 0.022570 -4.099 0.999740 -80.77 0.999740 -80.77 0.022572 22.589
8.76985000 0.022565 -4.103 0.999740 -80.77 0.999740 -80.77 0.022567 22.591
8.76990000 0.022560 -4.107 0.999740 -80.77 0.999740 -80.77 0.022562 22.594
8.76995000 0.022556 -4.111 0.999740 -80.77 0.999740 -80.77 0.022558 22.597
8.77000000 0.022551 -4.115 0.999741 -80.77 0.999741 -80.77 0.022553 22.599
8.77005000 0.022546 -4.119 0.999741 -80.77 0.999741 -80.77 0.022548 22.602
8.77010000 0.022541 -4.123 0.999741 -80.77 0.999741 -80.77 0.022543 22.604
8.77015000 0.022536 -4.127 0.999741 -80.77 0.999741 -80.77 0.022538 22.607
8.77020000 0.022532 -4.131 0.999741 -80.77 0.999741 -80.77 0.022534 22.609
8.77025000 0.022527 -4.135 0.999741 -80.77 0.999741 -80.77 0.022529 22.612
8.77030000 0.022522 -4.139 0.999741 -80.77 0.999741 -80.77 0.022524 22.615
8.77035000 0.022517 -4.144 0.999741 -80.77 0.999741 -80.77 0.022519 22.617
8.77040000 0.022512 -4.148 0.999741 -80.77 0.999741 -80.77 0.022514 22.620
8.77045000 0.022507 -4.152 0.999741 -80.77 0.999741 -80.77 0.022509 22.623
8.77050000 0.022502 -4.156 0.999742 -80.78 0.999742 -80.78 0.022504 22.625
8.77055000 0.022497 -4.160 0.999742 -80.78 0.999742 -80.78 0.022499 22.628
8.77060000 0.022492 -4.164 0.999742 -80.78 0.999742 -80.78 0.022494 22.631
8.77065000 0.022487 -4.168 0.999742 -80.78 0.999742 -80.78 0.022489 22.633
8.77070000 0.022482 -4.173 0.999742 -80.78 0.999742 -80.78 0.022484 22.636
8.77075000 0.022477 -4.177 0.999742 -80.78 0.999742 -80.78 0.022479 22.639
8.77080000 0.022472 -4.181 0.999742 -80.78 0.999742 -80.78 0.022474 22.642
8.77085000 0.022467 -4.185 0.999742 -80.78 0.999742 -80.78 0.022469 22.644
8.77090000 0.022462 -4.190 0.999742 -80.78 0.999742 -80.78 0.022464 22.647
8.77095000 0.022457 -4.194 0.999743 -80.78 0.999743 -80.78 0.022459 22.650
8.77100000 0.022452 -4.198 0.999743 -80.78 0.999743 -80.78 0.022454 22.653
8.77105000 0.022447 -4.203 0.999743 -80.78 0.999743 -80.78 0.022449 22.656
8.77110000 0.022441 -4.207 0.999743 -80.78 0.999743 -80.78 0.022443 22.658
8.77115000 0.022436 -4.211 0.999743 -80.79 0.999743 -80.79 0.022438 22.661
8.77120000 0.022431 -4.216 0.999743 -80.79 0.999743 -80.79 0.022433 22.664
8.77125000 0.022426 -4.220 0.999743 -80.79 0.999743 -80.79 0.022428 22.667
8.77130000 0.022420 -4.224 0.999743 -80.79 0.999743 -80.79 0.022423 22.670
8.77135000 0.022415 -4.229 0.999743 -80.79 0.999743 -80.79 0.022417 22.673
8.77140000 0.022410 -4.233 0.999744 -80.79 0.999744 -80.79 0.022412 22.676
8.77145000 0.022405 -4.238 0.999744 -80.79 0.999744 -80.79 0.022407 22.679
8.77150000 0.022399 -4.242 0.999744 -80.79 0.999744 -80.79 0.022401 22.682
8.77155000 0.022394 -4.247 0.999744 -80.79 0.999744 -80.79 0.022396 22.685
8.77160000 0.022388 -4.251 0.999744 -80.79 0.999744 -80.79 0.022391 22.688
8.77165000 0.022383 -4.256 0.999744 -80.79 0.999744 -80.79 0.022385 22.691
8.77170000 0.022378 -4.260 0.999744 -80.79 0.999744 -80.79 0.022380 22.694
8.77175000 0.022372 -4.265 0.999744 -80.79 0.999744 -80.79 0.022374 22.697
8.77180000 0.022367 -4.269 0.999744 -80.80 0.999744 -80.80 0.022369 22.700
8.77185000 0.022361 -4.274 0.999745 -80.80 0.999745 -80.80 0.022363 22.703
8.77190000 0.022356 -4.279 0.999745 -80.80 0.999745 -80.80 0.022358 22.706
8.77195000 0.022350 -4.283 0.999745 -80.80 0.999745 -80.80 0.022352 22.709
8.77200000 0.022345 -4.288 0.999745 -80.80 0.999745 -80.80 0.022347 22.712
8.77205000 0.022339 -4.293 0.999745 -80.80 0.999745 -80.80 0.022341 22.715
8.77210000 0.022333 -4.297 0.999745 -80.80 0.999745 -80.80 0.022336 22.719
8.77215000 0.022328 -4.302 0.999745 -80.80 0.999745 -80.80 0.022330 22.722
8.77220000 0.022322 -4.307 0.999745 -80.80 0.999745 -80.80 0.022324 22.725
8.77225000 0.022316 -4.312 0.999745 -80.80 0.999745 -80.80 0.022319 22.728
8.77230000 0.022311 -4.316 0.999746 -80.80 0.999746 -80.80 0.022313 22.731
8.77235000 0.022305 -4.321 0.999746 -80.80 0.999746 -80.80 0.022307 22.735
8.77240000 0.022299 -4.326 0.999746 -80.81 0.999746 -80.81 0.022301 22.738
8.77245000 0.022293 -4.331 0.999746 -80.81 0.999746 -80.81 0.022296 22.741
8.77250000 0.022288 -4.336 0.999746 -80.81 0.999746 -80.81 0.022290 22.744
8.77255000 0.022282 -4.341 0.999746 -80.81 0.999746 -80.81 0.022284 22.748
8.77260000 0.022276 -4.346 0.999746 -80.81 0.999746 -80.81 0.022278 22.751
8.77265000 0.022270 -4.350 0.999746 -80.81 0.999746 -80.81 0.022272 22.754
8.77270000 0.022264 -4.355 0.999747 -80.81 0.999747 -80.81 0.022266 22.758
8.77275000 0.022258 -4.360 0.999747 -80.81 0.999747 -80.81 0.022260 22.761
8.77280000 0.022252 -4.365 0.999747 -80.81 0.999747 -80.81 0.022255 22.765
8.77285000 0.022246 -4.370 0.999747 -80.81 0.999747 -80.81 0.022249 22.768
8.77290000 0.022240 -4.375 0.999747 -80.81 0.999747 -80.81 0.022243 22.771
8.77295000 0.022234 -4.380 0.999747 -80.81 0.999747 -80.81 0.022237 22.775
8.77300000 0.022228 -4.386 0.999747 -80.82 0.999747 -80.82 0.022230 22.778
8.77305000 0.022222 -4.391 0.999747 -80.82 0.999747 -80.82 0.022224 22.782
8.77310000 0.022216 -4.396 0.999748 -80.82 0.999748 -80.82 0.022218 22.786
8.77315000 0.022210 -4.401 0.999748 -80.82 0.999748 -80.82 0.022212 22.789
8.77320000 0.022204 -4.406 0.999748 -80.82 0.999748 -80.82 0.022206 22.793
8.77325000 0.022197 -4.411 0.999748 -80.82 0.999748 -80.82 0.022200 22.796
8.77330000 0.022191 -4.417 0.999748 -80.82 0.999748 -80.82 0.022194 22.800
8.77335000 0.022185 -4.422 0.999748 -80.82 0.999748 -80.82 0.022187 22.803
8.77340000 0.022179 -4.427 0.999748 -80.82 0.999748 -80.82 0.022181 22.807
8.77345000 0.022172 -4.432 0.999748 -80.82 0.999748 -80.82 0.022175 22.811
8.77350000 0.022166 -4.438 0.999749 -80.82 0.999749 -80.82 0.022168 22.815
8.77355000 0.022160 -4.443 0.999749 -80.82 0.999749 -80.82 0.022162 22.818
8.77360000 0.022153 -4.448 0.999749 -80.83 0.999749 -80.83 0.022156 22.822
8.77365000 0.022147 -4.454 0.999749 -80.83 0.999749 -80.83 0.022149 22.826
8.77370000 0.022140 -4.459 0.999749 -80.83 0.999749 -80.83 0.022143 22.830
8.77375000 0.022134 -4.465 0.999749 -80.83 0.999749 -80.83 0.022136 22.833
8.77380000 0.022127 -4.470 0.999749 -80.83 0.999749 -80.83 0.022130 22.837
8.77385000 0.022121 -4.476 0.999749 -80.83 0.999749 -80.83 0.022123 22.841
8.77390000 0.022114 -4.481 0.999750 -80.83 0.999750 -80.83 0.022117 22.845
8.77395000 0.022108 -4.487 0.999750 -80.83 0.999750 -80.83 0.022110 22.849
8.77400000 0.022101 -4.492 0.999750 -80.83 0.999750 -80.83 0.022104 22.853
8.77405000 0.022094 -4.498 0.999750 -80.83 0.999750 -80.83 0.022097 22.857
8.77410000 0.022088 -4.503 0.999750 -80.83 0.999750 -80.83 0.022090 22.861
8.77415000 0.022081 -4.509 0.999750 -80.83 0.999750 -80.83 0.022083 22.865
8.77420000 0.022074 -4.515 0.999750 -80.84 0.999750 -80.84 0.022077 22.869
8.77425000 0.022067 -4.521 0.999751 -80.84 0.999751 -80.84 0.022070 22.873
8.77430000 0.022061 -4.526 0.999751 -80.84 0.999751 -80.84 0.022063 22.877
8.77435000 0.022054 -4.532 0.999751 -80.84 0.999751 -80.84 0.022056 22.881
8.77440000 0.022047 -4.538 0.999751 -80.84 0.999751 -80.84 0.022049 22.885
8.77445000 0.022040 -4.544 0.999751 -80.84 0.999751 -80.84 0.022042 22.889
8.77450000 0.022033 -4.550 0.999751 -80.84 0.999751 -80.84 0.022035 22.893
8.77455000 0.022026 -4.555 0.999751 -80.84 0.999751 -80.84 0.022028 22.898
8.77460000 0.022019 -4.561 0.999752 -80.84 0.999752 -80.84 0.022021 22.902
8.77465000 0.022012 -4.567 0.999752 -80.84 0.999752 -80.84 0.022014 22.906
8.77470000 0.022005 -4.573 0.999752 -80.84 0.999752 -80.84 0.022007 22.910
8.77475000 0.021998 -4.579 0.999752 -80.84 0.999752 -80.84 0.022000 22.915
8.77480000 0.021990 -4.585 0.999752 -80.85 0.999752 -80.85 0.021993 22.919
8.77485000 0.021983 -4.591 0.999752 -80.85 0.999752 -80.85 0.021986 22.923
8.77490000 0.021976 -4.598 0.999752 -80.85 0.999752 -80.85 0.021979 22.928
8.77495000 0.021969 -4.604 0.999753 -80.85 0.999753 -80.85 0.021971 22.932
8.77500000 0.021961 -4.610 0.999753 -80.85 0.999753 -80.85 0.021964 22.937
8.77505000 0.021954 -4.616 0.999753 -80.85 0.999753 -80.85 0.021957 22.941
8.77510000 0.021947 -4.622 0.999753 -80.85 0.999753 -80.85 0.021949 22.946
8.77515000 0.021939 -4.629 0.999753 -80.85 0.999753 -80.85 0.021942 22.950
8.77520000 0.021932 -4.635 0.999753 -80.85 0.999753 -80.85 0.021934 22.955
8.77525000 0.021924 -4.641 0.999753 -80.85 0.999753 -80.85 0.021927 22.959
8.77530000 0.021917 -4.648 0.999754 -80.85 0.999754 -80.85 0.021919 22.964
8.77535000 0.021909 -4.654 0.999754 -80.86 0.999754 -80.86 0.021912 22.969
8.77540000 0.021901 -4.660 0.999754 -80.86 0.999754 -80.86 0.021904 22.973
8.77545000 0.021894 -4.667 0.999754 -80.86 0.999754 -80.86 0.021896 22.978
8.77550000 0.021886 -4.673 0.999754 -80.86 0.999754 -80.86 0.021889 22.983
8.77555000 0.021878 -4.680 0.999754 -80.86 0.999754 -80.86 0.021881 22.988
8.77560000 0.021871 -4.687 0.999754 -80.86 0.999754 -80.86 0.021873 22.993
8.77565000 0.021863 -4.693 0.999755 -80.86 0.999755 -80.86 0.021865 22.997
8.77570000 0.021855 -4.700 0.999755 -80.86 0.999755 -80.86 0.021858 23.002
8.77575000 0.021847 -4.707 0.999755 -80.86 0.999755 -80.86 0.021850 23.007
8.77580000 0.021839 -4.713 0.999755 -80.86 0.999755 -80.86 0.021842 23.012
8.77585000 0.021831 -4.720 0.999755 -80.87 0.999755 -80.87 0.021834 23.017
8.77590000 0.021823 -4.727 0.999755 -80.87 0.999755 -80.87 0.021826 23.022
8.77595000 0.021815 -4.734 0.999756 -80.87 0.999756 -80.87 0.021818 23.027
8.77600000 0.021807 -4.741 0.999756 -80.87 0.999756 -80.87 0.021809 23.032
8.77605000 0.021798 -4.748 0.999756 -80.87 0.999756 -80.87 0.021801 23.038
8.77610000 0.021790 -4.755 0.999756 -80.87 0.999756 -80.87 0.021793 23.043
8.77615000 0.021782 -4.762 0.999756 -80.87 0.999756 -80.87 0.021785 23.048
8.77620000 0.021774 -4.769 0.999756 -80.87 0.999756 -80.87 0.021776 23.053
8.77625000 0.021765 -4.776 0.999757 -80.87 0.999757 -80.87 0.021768 23.059
8.77630000 0.021757 -4.783 0.999757 -80.87 0.999757 -80.87 0.021760 23.064
8.77635000 0.021748 -4.790 0.999757 -80.87 0.999757 -80.87 0.021751 23.069
8.77640000 0.021740 -4.797 0.999757 -80.88 0.999757 -80.88 0.021743 23.075
8.77645000 0.021731 -4.805 0.999757 -80.88 0.999757 -80.88 0.021734 23.080
8.77650000 0.021723 -4.812 0.999757 -80.88 0.999757 -80.88 0.021726 23.086
8.77655000 0.021714 -4.819 0.999758 -80.88 0.999758 -80.88 0.021717 23.091
8.77660000 0.021705 -4.827 0.999758 -80.88 0.999758 -80.88 0.021708 23.097
8.77665000 0.021697 -4.834 0.999758 -80.88 0.999758 -80.88 0.021700 23.102
8.77670000 0.021688 -4.842 0.999758 -80.88 0.999758 -80.88 0.021691 23.108
8.77675000 0.021679 -4.849 0.999758 -80.88 0.999758 -80.88 0.021682 23.114
8.77680000 0.021670 -4.857 0.999758 -80.88 0.999758 -80.88 0.021673 23.119
8.77685000 0.021661 -4.865 0.999759 -80.88 0.999759 -80.88 0.021664 23.125
8.77690000 0.021652 -4.872 0.999759 -80.89 0.999759 -80.89 0.021655 23.131
8.77695000 0.021643 -4.880 0.999759 -80.89 0.999759 -80.89 0.021646 23.137
8.77700000 0.021634 -4.888 0.999759 -80.89 0.999759 -80.89 0.021637 23.143
8.77705000 0.021625 -4.896 0.999759 -80.89 0.999759 -80.89 0.021628 23.149
8.77710000 0.021615 -4.904 0.999759 -80.89 0.999759 -80.89 0.021618 23.155
8.77715000 0.021606 -4.912 0.999760 -80.89 0.999760 -80.89 0.021609 23.161
8.77720000 0.021597 -4.920 0.999760 -80.89 0.999760 -80.89 0.021600 23.167
8.77725000 0.021587 -4.928 0.999760 -80.89 0.999760 -80.89 0.021590 23.173
8.77730000 0.021578 -4.936 0.999760 -80.89 0.999760 -80.89 0.021581 23.179
8.77735000 0.021568 -4.944 0.999760 -80.89 0.999760 -80.89 0.021571 23.185
8.77740000 0.021559 -4.952 0.999761 -80.90 0.999761 -80.90 0.021562 23.192
8.77745000 0.021549 -4.960 0.999761 -80.90 0.999761 -80.90 0.021552 23.198
8.77750000 0.021539 -4.969 0.999761 -80.90 0.999761 -80.90 0.021543 23.204
8.77755000 0.021530 -4.977 0.999761 -80.90 0.999761 -80.90 0.021533 23.211
8.77760000 0.021520 -4.985 0.999761 -80.90 0.999761 -80.90 0.021523 23.217
8.77765000 0.021510 -4.994 0.999761 -80.90 0.999761 -80.90 0.021513 23.224
8.77770000 0.021500 -5.003 0.999762 -80.90 0.999762 -80.90 0.021503 23.230
8.77775000 0.021490 -5.011 0.999762 -80.90 0.999762 -80.90 0.021493 23.237
8.77780000 0.021480 -5.020 0.999762 -80.90 0.999762 -80.90 0.021483 23.244
8.77785000 0.021470 -5.029 0.999762 -80.91 0.999762 -80.91 0.021473 23.250
8.77790000 0.021459 -5.037 0.999762 -80.91 0.999762 -80.91 0.021463 23.257
8.77795000 0.021449 -5.046 0.999763 -80.91 0.999763 -80.91 0.021452 23.264
8.77800000 0.021439 -5.055 0.999763 -80.91 0.999763 -80.91 0.021442 23.271
8.77805000 0.021428 -5.064 0.999763 -80.91 0.999763 -80.91 0.021432 23.278
8.77810000 0.021418 -5.073 0.999763 -80.91 0.999763 -80.91 0.021421 23.285
8.77815000 0.021407 -5.082 0.999763 -80.91 0.999763 -80.91 0.021411 23.292
8.77820000 0.021397 -5.092 0.999764 -80.91 0.999764 -80.91 0.021400 23.299
8.77825000 0.021386 -5.101 0.999764 -80.91 0.999764 -80.91 0.021389 23.306
8.77830000 0.021375 -5.110 0.999764 -80.91 0.999764 -80.91 0.021379 23.314
8.77835000 0.021364 -5.120 0.999764 -80.92 0.999764 -80.92 0.021368 23.321
8.77840000 0.021353 -5.129 0.999764 -80.92 0.999764 -80.92 0.021357 23.329
8.77845000 0.021342 -5.139 0.999765 -80.92 0.999765 -80.92 0.021346 23.336
8.77850000 0.021331 -5.148 0.999765 -80.92 0.999765 -80.92 0.021335 23.344
8.77855000 0.021320 -5.158 0.999765 -80.92 0.999765 -80.92 0.021324 23.351
8.77860000 0.021309 -5.168 0.999765 -80.92 0.999765 -80.92 0.021312 23.359
8.77865000 0.021298 -5.177 0.999765 -80.92 0.999765 -80.92 0.021301 23.367
8.77870000 0.021286 -5.187 0.999766 -80.92 0.999766 -80.92 0.021290 23.374
8.77875000 0.021275 -5.197 0.999766 -80.92 0.999766 -80.92 0.021278 23.382
8.77880000 0.021263 -5.207 0.999766 -80.93 0.999766 -80.93 0.021267 23.390
8.77885000 0.021252 -5.218 0.999766 -80.93 0.999766 -80.93 0.021255 23.398
8.77890000 0.021240 -5.228 0.999767 -80.93 0.999767 -80.93 0.021244 23.406
8.77895000 0.021228 -5.238 0.999767 -80.93 0.999767 -80.93 0.021232 23.414
8.77900000 0.021216 -5.248 0.999767 -80.93 0.999767 -80.93 0.021220 23.423
8.77905000 0.021204 -5.259 0.999767 -80.93 0.999767 -80.93 0.021208 23.431
8.77910000 0.021192 -5.269 0.999767 -80.93 0.999767 -80.93 0.021196 23.439
8.77915000 0.021180 -5.280 0.999768 -80.93 0.999768 -80.93 0.021184 23.448
8.77920000 0.021168 -5.291 0.999768 -80.94 0.999768 -80.94 0.021172 23.456
8.77925000 0.021155 -5.302 0.999768 -80.94 0.999768 -80.94 0.021159 23.465
8.77930000 0.021143 -5.313 0.999768 -80.94 0.999768 -80.94 0.021147 23.474
8.77935000 0.021130 -5.324 0.999769 -80.94 0.999769 -80.94 0.021134 23.482
8.77940000 0.021118 -5.335 0.999769 -80.94 0.999769 -80.94 0.021122 23.491
8.77945000 0.021105 -5.346 0.999769 -80.94 0.999769 -80.94 0.021109 23.500
8.77950000 0.021092 -5.357 0.999769 -80.94 0.999769 -80.94 0.021096 23.509
8.77955000 0.021079 -5.368 0.999769 -80.94 0.999769 -80.94 0.021083 23.518
8.77960000 0.021066 -5.380 0.999770 -80.95 0.999770 -80.95 0.021070 23.528