! Sonnet Data File
! From: emgraph Version : 16.52
! From Project: 171117_Xmon_fullysym
! Data is De-embedded 
! Data File Written: 11/26/2017 17:14:24
!< HDATE 11/22/2017 16:48:52
!< MDATE 11/23/2017 10:16:42
!< PARAMS
!< Lj = 11.0
!< Gap = 1.0
!< Pwid = 2000.0
!< Airgap = 6.0
!< Width = 10.0
!< Lj1 = 9.6
!< END PARAMS
# GHZ S MA R 50.90000
8.750000000000000 0.0240566500849 -2.940148742126 0.9997064951151 -80.49403472358 0.9997064951168 -80.49403472342 0.0240580293120 21.966319435437
!< P1 F=8.75 Eeff=(6.44841643 -2.9796e-5) Z0=(50.9085185 1.17018e-4) R=0.0 C=0.0 
!< P2 F=8.75 Eeff=(6.44841643 -2.9796e-5) Z0=(50.9085185 1.17018e-4) R=0.0 C=0.0 
8.750100000000000 0.0240523584105 -2.943932381382 0.9997065949275 -80.49521438141 0.9997065949275 -80.49521438141 0.0240537393912 21.967761254189
8.750200000000001 0.0240480498496 -2.947727258749 0.9997066951091 -80.49639503517 0.9997066951091 -80.49639503517 0.0240494325923 21.969212405036
8.750300000000001 0.0240437243019 -2.951533436350 0.9997067956622 -80.49757669062 0.9997067956622 -80.49757669062 0.0240451088168 21.970672955299
8.750400000000001 0.0240393816621 -2.955350988123 0.9997068965885 -80.49875935396 0.9997068965885 -80.49875935396 0.0240407679597 21.972142970213
8.750500000000001 0.0240350218190 -2.959179992848 0.9997069978898 -80.49994303179 0.9997069978898 -80.49994303179 0.0240364099098 21.973622517302
8.750600000000000 0.0240306446914 -2.963020512201 0.9997070995682 -80.50112772890 0.9997070995682 -80.50112772890 0.0240320345862 21.975111647908
8.750700000000000 0.0240262501750 -2.966872621969 0.9997072016260 -80.50231345148 0.9997072016260 -80.50231345148 0.0240276418843 21.976610425699
8.750800000000000 0.0240218381610 -2.970736401179 0.9997073040656 -80.50350020595 0.9997073040656 -80.50350020595 0.0240232316953 21.978118915882
8.750900000000000 0.0240174085558 -2.974611916663 0.9997074068882 -80.50468799784 0.9997074068882 -80.50468799784 0.0240188039262 21.979637179245
8.751000000000001 0.0240129612429 -2.978499252027 0.9997075100963 -80.50587683405 0.9997075100963 -80.50587683405 0.0240143584604 21.981165285771
8.751100000000001 0.0240084961435 -2.982398468591 0.9997076136917 -80.50706671925 0.9997076136917 -80.50706671925 0.0240098952191 21.982703286226
8.751200000000001 0.0240040131330 -2.986309653179 0.9997077176766 -80.50825766079 0.9997077176766 -80.50825766079 0.0240054140779 21.984251256613
8.751300000000001 0.0239995121070 -2.990232885318 0.9997078220542 -80.50944966488 0.9997078220542 -80.50944966488 0.0240009149321 21.985809258853
8.751400000000000 0.0239949929789 -2.994168227555 0.9997079268251 -80.51064273662 0.9997079268251 -80.51064273662 0.0239963976955 21.987377351619
8.751500000000000 0.0239904556188 -2.998115772419 0.9997080319922 -80.51183688369 0.9997080319922 -80.51183688369 0.0239918622384 21.988955612258
8.751600000000000 0.0239858999272 -3.002075592455 0.9997081375569 -80.51303211199 0.9997081375569 -80.51303211199 0.0239873084614 21.990544104687
8.751700000000001 0.0239813257951 -3.006047771292 0.9997082435231 -80.51422842796 0.9997082435231 -80.51422842796 0.0239827362552 21.992142892874
8.751800000000001 0.0239767331224 -3.010032379517 0.9997083498912 -80.51542583754 0.9997083498912 -80.51542583754 0.0239781455202 21.993752043837
8.751900000000001 0.0239721217789 -3.014029511162 0.9997084566644 -80.51662434841 0.9997084566644 -80.51662434841 0.0239735361262 21.995371635092
8.752000000000001 0.0239674916682 -3.018039239348 0.9997085638448 -80.51782396630 0.9997085638448 -80.51782396630 0.0239689079767 21.997001728057
8.752100000000000 0.0239628426848 -3.022061641092 0.9997086714340 -80.51902469742 0.9997086714340 -80.51902469742 0.0239642609666 21.998642390188
8.752200000000000 0.0239581747028 -3.026096808319 0.9997087794351 -80.52022654926 0.9997087794351 -80.52022654926 0.0239595949698 22.000293697647
8.752300000000000 0.0239534876142 -3.030144820755 0.9997088878500 -80.52142952818 0.9997088878500 -80.52142952818 0.0239549098786 22.001955718909
8.752400000000000 0.0239487812930 -3.034205768343 0.9997089966809 -80.52263364163 0.9997089966809 -80.52263364163 0.0239502055673 22.003628532426
8.752500000000001 0.0239440556451 -3.038279725568 0.9997091059306 -80.52383889522 0.9997091059306 -80.52383889522 0.0239454819412 22.005312197640
8.752600000000001 0.0239393105368 -3.042366785291 0.9997092156004 -80.52504529682 0.9997092156004 -80.52504529682 0.0239407388677 22.007006799137
8.752700000000001 0.0239345458546 -3.046467035791 0.9997093256942 -80.52625285318 0.9997093256942 -80.52625285318 0.0239359762323 22.008712405064
8.752800000000001 0.0239297614814 -3.050580560279 0.9997094362132 -80.52746157120 0.9997094362132 -80.52746157120 0.0239311939188 22.010429091874
8.752900000000000 0.0239249572974 -3.054707448637 0.9997095471602 -80.52867145799 0.9997095471602 -80.52867145799 0.0239263918072 22.012156933410
8.753000000000000 0.0239201331839 -3.058847786829 0.9997096585369 -80.52988252057 0.9997096585369 -80.52988252057 0.0239215697792 22.013896006501
8.753100000000000 0.0239152890182 -3.063001667545 0.9997097703466 -80.53109476620 0.9997097703466 -80.53109476620 0.0239167277119 22.015646385991
8.753200000000001 0.0239104246879 -3.067169174652 0.9997098825914 -80.53230820154 0.9997098825914 -80.53230820154 0.0239118654930 22.017408144523
8.753300000000001 0.0239055400476 -3.071350413894 0.9997099952745 -80.53352283520 0.9997099952745 -80.53352283520 0.0239069829771 22.019181370264
8.753400000000001 0.0239006349830 -3.075545468184 0.9997101083970 -80.53473867392 0.9997101083970 -80.53473867392 0.0239020800507 22.020966139167
8.753500000000001 0.0238957093776 -3.079754427238 0.9997102219621 -80.53595572462 0.9997102219621 -80.53595572462 0.0238971565967 22.022762524255
8.753600000000000 0.0238907630988 -3.083977389297 0.9997103359727 -80.53717399515 0.9997103359727 -80.53717399515 0.0238922124826 22.024570607895
8.753700000000000 0.0238857960135 -3.088214450753 0.9997104504307 -80.53839349337 0.9997104504307 -80.53839349337 0.0238872475759 22.026390475092
8.753800000000000 0.0238808080046 -3.092465700174 0.9997105653386 -80.53961422623 0.9997105653386 -80.53961422623 0.0238822617595 22.028222201528
8.753900000000000 0.0238757989340 -3.096731241533 0.9997106806999 -80.54083620191 0.9997106806999 -80.54083620191 0.0238772548948 22.030065871651
8.754000000000001 0.0238707686784 -3.101011163746 0.9997107965157 -80.54205942769 0.9997107965157 -80.54205942769 0.0238722268596 22.031921567859
8.754100000000001 0.0238657171023 -3.105305570539 0.9997109127900 -80.54328391160 0.9997109127900 -80.54328391160 0.0238671775178 22.033789373028
8.754200000000001 0.0238606440744 -3.109614557729 0.9997110295243 -80.54450966143 0.9997110295243 -80.54450966143 0.0238621067385 22.035669372952
8.754300000000001 0.0238555494350 -3.113938241800 0.9997111467224 -80.54573668659 0.9997111467224 -80.54573668659 0.0238570143623 22.037561665131
8.754400000000000 0.0238504330998 -3.118276692721 0.9997112643857 -80.54696499213 0.9997112643857 -80.54696499213 0.0238519003046 22.039466309766
8.754500000000000 0.0238452948897 -3.122630039471 0.9997113825184 -80.54819458861 0.9997113825184 -80.54819458861 0.0238467643866 22.041383414668
8.754600000000000 0.0238401346851 -3.126998371797 0.9997115011219 -80.54942548313 0.9997115011219 -80.54942548313 0.0238416064890 22.043313060575
8.754700000000000 0.0238349523560 -3.131381789275 0.9997116201992 -80.55065768340 0.9997116201992 -80.55065768340 0.0238364264817 22.045255330555
8.754800000000001 0.0238297477421 -3.135780409747 0.9997117397537 -80.55189119888 0.9997117397537 -80.55189119888 0.0238312242046 22.047210323990
8.754900000000001 0.0238245207189 -3.140194327981 0.9997118597876 -80.55312603697 0.9997118597876 -80.55312603697 0.0238259995334 22.049178123449
8.755000000000001 0.0238192711365 -3.144623654919 0.9997119803036 -80.55436220654 0.9997119803036 -80.55436220654 0.0238207523183 22.051158824589
8.755100000000001 0.0238139988610 -3.149068492749 0.9997121013045 -80.55559971550 0.9997121013045 -80.55559971550 0.0238154824256 22.053152514075
8.755200000000000 0.0238087037356 -3.153528957648 0.9997122227934 -80.55683857317 0.9997122227934 -80.55683857317 0.0238101896985 22.055159291272
8.755300000000000 0.0238033856205 -3.158005157798 0.9997123447739 -80.55807878781 0.9997123447739 -80.55807878781 0.0238048739972 22.057179244567
8.755400000000000 0.0237980443640 -3.162497203757 0.9997124672479 -80.55932036841 0.9997124672479 -80.55932036841 0.0237995351703 22.059212473986
8.755500000000001 0.0237926798315 -3.167005199518 0.9997125902182 -80.56056332294 0.9997125902182 -80.56056332294 0.0237941730836 22.061259067196
8.755600000000001 0.0237872918627 -3.171529265066 0.9997127136882 -80.56180766089 0.9997127136882 -80.56180766089 0.0237887875765 22.063319125930
8.755700000000001 0.0237818803087 -3.176069510756 0.9997128376599 -80.56305339108 0.9997128376599 -80.56305339108 0.0237833785009 22.065392748391
8.755800000000001 0.0237764450171 -3.180626056037 0.9997129621381 -80.56430052255 0.9997129621381 -80.56430052255 0.0237779457036 22.067480029298
8.755900000000000 0.0237709858333 -3.185199014779 0.9997130871246 -80.56554906444 0.9997130871246 -80.56554906444 0.0237724890308 22.069581071050
8.756000000000000 0.0237655026097 -3.189788499454 0.9997132126223 -80.56679902550 0.9997132126223 -80.56679902550 0.0237670083350 22.071695970410
8.756100000000000 0.0237599951884 -3.194394630540 0.9997133386346 -80.56805041509 0.9997133386346 -80.56805041509 0.0237615034583 22.073824828501
8.756200000000000 0.0237544634037 -3.199017531201 0.9997134651644 -80.56930324302 0.9997134651644 -80.56930324302 0.0237559742352 22.075967753024
8.756300000000001 0.0237489071033 -3.203657318823 0.9997135922149 -80.57055751830 0.9997135922149 -80.57055751830 0.0237504205136 22.078124842907
8.756400000000001 0.0237433261339 -3.208314110277 0.9997137197889 -80.57181325005 0.9997137197889 -80.57181325005 0.0237448421403 22.080296199437
8.756500000000001 0.0237377203151 -3.212988041216 0.9997138478905 -80.57307044892 0.9997138478905 -80.57307044892 0.0237392389351 22.082481936253
8.756600000000001 0.0237320895082 -3.217679218344 0.9997139765214 -80.57432912314 0.9997139765213 -80.57432912314 0.0237336107595 22.084682149316
8.756700000000000 0.0237264335321 -3.222387780584 0.9997141056864 -80.57558928345 0.9997141056864 -80.57558928345 0.0237279574321 22.086896951486
8.756800000000000 0.0237207522230 -3.227113849297 0.9997142353874 -80.57685093953 0.9997142353874 -80.57685093953 0.0237222787901 22.089126453288
8.756900000000000 0.0237150454222 -3.231857549143 0.9997143656283 -80.57811410081 0.9997143656283 -80.57811410081 0.0237165746743 22.091370757839
8.757000000000000 0.0237093129530 -3.236619013753 0.9997144964124 -80.57937877776 0.9997144964124 -80.57937877776 0.0237108449083 22.093629979858
8.757100000000001 0.0237035546448 -3.241398371596 0.9997146277424 -80.58064498047 0.9997146277424 -80.58064498047 0.0237050893220 22.095904232668
8.757200000000001 0.0236977703320 -3.246195752733 0.9997147596224 -80.58191271876 0.9997147596224 -80.58191271876 0.0236993077496 22.098193623695
8.757300000000001 0.0236919598428 -3.251011286684 0.9997148920549 -80.58318200282 0.9997148920549 -80.58318200282 0.0236935000197 22.100498268120
8.757400000000001 0.0236861229987 -3.255845112061 0.9997150250443 -80.58445284322 0.9997150250443 -80.58445284322 0.0236876659537 22.102818280726
8.757500000000000 0.0236802596264 -3.260697361263 0.9997151585935 -80.58572525024 0.9997151585935 -80.58572525024 0.0236818053786 22.105153776796
8.757600000000000 0.0236743695369 -3.265568175854 0.9997152927053 -80.58699923507 0.9997152927053 -80.58699923507 0.0236759181058 22.107504881412
8.757700000000000 0.0236684525637 -3.270457687341 0.9997154273837 -80.58827480757 0.9997154273837 -80.58827480757 0.0236700039690 22.109871704638
8.757800000000001 0.0236625085241 -3.275366036000 0.9997155626322 -80.58955197860 0.9997155626322 -80.58955197860 0.0236640627854 22.112254367199
8.757900000000001 0.0236565372262 -3.280293370538 0.9997156984553 -80.59083075951 0.9997156984553 -80.59083075951 0.0236580943630 22.114652992674
8.758000000000001 0.0236505384947 -3.285239824110 0.9997158348551 -80.59211116070 0.9997158348551 -80.59211116070 0.0236520985272 22.117067701471
8.758100000000001 0.0236445121417 -3.290205541059 0.9997159718351 -80.59339319330 0.9997159718351 -80.59339319330 0.0236460750905 22.119498618223
8.758200000000000 0.0236384579751 -3.295190671558 0.9997161093999 -80.59467686870 0.9997161093999 -80.59467686870 0.0236400238605 22.121945867662
8.758300000000000 0.0236323758202 -3.300195351398 0.9997162475524 -80.59596219726 0.9997162475524 -80.59596219726 0.0236339446627 22.124409569517
8.758400000000000 0.0236262654698 -3.305219740637 0.9997163862972 -80.59724919127 0.9997163862972 -80.59724919127 0.0236278372901 22.126889857271
8.758500000000000 0.0236201267393 -3.310263979953 0.9997165256367 -80.59853786166 0.9997165256367 -80.59853786166 0.0236217015588 22.129386858381
8.758600000000001 0.0236139594249 -3.315328228664 0.9997166655756 -80.59982822052 0.9997166655756 -80.59982822052 0.0236155372647 22.131900705160
8.758700000000001 0.0236077633444 -3.320412628439 0.9997168061168 -80.60112027865 0.9997168061168 -80.60112027865 0.0236093442261 22.134431523005
8.758800000000001 0.0236015382870 -3.325517343690 0.9997169472653 -80.60241404856 0.9997169472653 -80.60241404856 0.0236031222319 22.136979448915
8.758900000000001 0.0235952840642 -3.330642521386 0.9997170890241 -80.60370954142 0.9997170890241 -80.60370954142 0.0235968710943 22.139544611858
8.759000000000000 0.0235890004599 -3.335788325220 0.9997172313964 -80.60500677002 0.9997172313964 -80.60500677002 0.0235905905976 22.142127156859
8.759100000000000 0.0235826872821 -3.340954909724 0.9997173743871 -80.60630574577 0.9997173743871 -80.60630574577 0.0235842805495 22.144727211785
8.759200000000000 0.0235763443279 -3.346142433386 0.9997175180000 -80.60760648071 0.9997175180000 -80.60760648071 0.0235779407474 22.147344913583
8.759300000000001 0.0235699713768 -3.351351065768 0.9997176622390 -80.60890898790 0.9997176622390 -80.60890898790 0.0235715709712 22.149980409119
8.759400000000001 0.0235635682252 -3.356580967465 0.9997178071082 -80.61021327942 0.9997178071082 -80.61021327942 0.0235651710173 22.152633836134
8.759500000000001 0.0235571346711 -3.361832297275 0.9997179526111 -80.61151936726 0.9997179526111 -80.61151936726 0.0235587406841 22.155305332965
8.759600000000001 0.0235506704849 -3.367105231957 0.9997180987520 -80.61282726500 0.9997180987520 -80.61282726500 0.0235522797424 22.157995052522
8.759700000000000 0.0235441754682 -3.372399929306 0.9997182455342 -80.61413698445 0.9997182455342 -80.61413698445 0.0235457879940 22.160703132221
8.759800000000000 0.0235376493901 -3.377716572257 0.9997183929638 -80.61544853929 0.9997183929638 -80.61544853929 0.0235392652075 22.163429722930
8.759900000000000 0.0235310920428 -3.383055322825 0.9997185410435 -80.61676194185 0.9997185410435 -80.61676194185 0.0235327111761 22.166174969940
8.760000000000000 0.0235245031954 -3.388416360893 0.9997186897774 -80.61807720581 0.9997186897774 -80.61807720581 0.0235261256691 22.168939028924
8.760100000000001 0.0235178826238 -3.393799863064 0.9997188391699 -80.61939434448 0.9997188391699 -80.61939434448 0.0235195084625 22.171722051957
8.760200000000001 0.0235112301048 -3.399206008306 0.9997189892262 -80.62071337110 0.9997189892262 -80.62071337110 0.0235128593330 22.174524189069
8.760300000000001 0.0235045454197 -3.404634967229 0.9997191399491 -80.62203429864 0.9997191399491 -80.62203429864 0.0235061780627 22.177345593597
8.760400000000001 0.0234978283231 -3.410086931505 0.9997192913433 -80.62335714165 0.9997192913433 -80.62335714165 0.0234994644065 22.180186430645
8.760500000000000 0.0234910785930 -3.415562082072 0.9997194434144 -80.62468191332 0.9997194434144 -80.62468191332 0.0234927181419 22.183046850031
8.760600000000000 0.0234842959955 -3.421060599373 0.9997195961650 -80.62600862751 0.9997195961650 -80.62600862751 0.0234859390361 22.185927016265
8.760700000000000 0.0234774802843 -3.426582680156 0.9997197496008 -80.62733729885 0.9997197496008 -80.62733729885 0.0234791268426 22.188827093827
8.760800000000000 0.0234706312240 -3.432128511012 0.9997199037259 -80.62866794129 0.9997199037259 -80.62866794129 0.0234722813264 22.191747245508
8.760900000000001 0.0234637485810 -3.437698279751 0.9997200585451 -80.63000056872 0.9997200585451 -80.63000056872 0.0234654022539 22.194687632101
8.761000000000001 0.0234568321124 -3.443292177716 0.9997202140622 -80.63133519552 0.9997202140622 -80.63133519552 0.0234584893830 22.197648422467
8.761100000000001 0.0234498815622 -3.448910409118 0.9997203702828 -80.63267183691 0.9997203702828 -80.63267183691 0.0234515424574 22.200629789697
8.761200000000001 0.0234428966811 -3.454553169442 0.9997205272102 -80.63401050766 0.9997205272102 -80.63401050766 0.0234445612289 22.203631908134
8.761300000000000 0.0234358772397 -3.460220648896 0.9997206848502 -80.63535122142 0.9997206848502 -80.63535122142 0.0234375454673 22.206654936669
8.761400000000000 0.0234288229542 -3.465913066888 0.9997208432073 -80.63669399499 0.9997208432073 -80.63669399499 0.0234304948900 22.209699068398
8.761500000000000 0.0234217335931 -3.471630616268 0.9997210022870 -80.63803884215 0.9997210022870 -80.63803884215 0.0234234092648 22.212764464531
8.761600000000001 0.0234146088717 -3.477373515034 0.9997211620926 -80.63938577977 0.9997211620926 -80.63938577977 0.0234162883083 22.215851323197
8.761700000000001 0.0234074485630 -3.483141952182 0.9997213226287 -80.64073482133 0.9997213226287 -80.64073482133 0.0234091317938 22.218959806027
8.761800000000001 0.0234002523813 -3.488936155039 0.9997214839015 -80.64208598380 0.9997214839015 -80.64208598380 0.0234019394354 22.222090106800
8.761900000000001 0.0233930200755 -3.494756328870 0.9997216459158 -80.64343928210 0.9997216459158 -80.64343928210 0.0233947109821 22.225242401821
8.762000000000000 0.0233857513703 -3.500602694129 0.9997218086768 -80.64479473256 0.9997218086768 -80.64479473256 0.0233874461589 22.228416881865
8.762100000000000 0.0233784459902 -3.506475467565 0.9997219721880 -80.64615235151 0.9997219721880 -80.64615235151 0.0233801446916 22.231613742521
8.762200000000000 0.0233711036521 -3.512374881090 0.9997221364565 -80.64751215579 0.9997221364565 -80.64751215579 0.0233728062963 22.234833175838
8.762300000000000 0.0233637240943 -3.518301144560 0.9997223014856 -80.64887416092 0.9997223014856 -80.64887416092 0.0233654307124 22.238075371038
8.762400000000001 0.0233563070404 -3.524254483385 0.9997224672809 -80.65023838333 0.9997224672809 -80.65023838333 0.0233580176635 22.241340521313
8.762500000000001 0.0233488522032 -3.530235130885 0.9997226338485 -80.65160484007 0.9997226338485 -80.65160484007 0.0233505668626 22.244628825943
8.762600000000001 0.0233413592884 -3.536243322010 0.9997228011929 -80.65297354861 0.9997228011929 -80.65297354861 0.0233430780158 22.247940492235
8.762700000000001 0.0233338280201 -3.542279284234 0.9997229693199 -80.65434452533 0.9997229693199 -80.65434452533 0.0233355508477 22.251275715036
8.762800000000000 0.0233262581003 -3.548343256946 0.9997231382343 -80.65571778794 0.9997231382343 -80.65571778794 0.0233279850604 22.254634704902
8.762900000000000 0.0233186492445 -3.554435472042 0.9997233079408 -80.65709335332 0.9997233079408 -80.65709335332 0.0233203803703 22.258017665337
8.763000000000000 0.0233110011514 -3.560556177388 0.9997234784464 -80.65847123939 0.9997234784464 -80.65847123939 0.0233127364757 22.261424805815
8.763100000000000 0.0233033135162 -3.566705620110 0.9997236497563 -80.65985146425 0.9997236497563 -80.65985146425 0.0233050530724 22.264856342027
8.763200000000001 0.0232955860342 -3.572884045928 0.9997238218751 -80.66123404597 0.9997238218751 -80.66123404597 0.0232973298565 22.268312492269
8.763300000000001 0.0232878184127 -3.579091698711 0.9997239948089 -80.66261900196 0.9997239948089 -80.66261900196 0.0232895665352 22.271793464871
8.763400000000001 0.0232800103363 -3.585328833984 0.9997241685630 -80.66400635096 0.9997241685630 -80.66400635096 0.0232817627937 22.275299484784
8.763500000000001 0.0232721614886 -3.591595712107 0.9997243431437 -80.66539611176 0.9997243431437 -80.66539611176 0.0232739183159 22.278830775119
8.763600000000000 0.0232642715506 -3.597892593124 0.9997245185564 -80.66678830331 0.9997245185564 -80.66678830331 0.0232660327831 22.282387564174
8.763700000000000 0.0232563402137 -3.604219731746 0.9997246948065 -80.66818294393 0.9997246948065 -80.66818294393 0.0232581058875 22.285970074869
8.763800000000000 0.0232483671587 -3.610577395041 0.9997248719012 -80.66958005264 0.9997248719012 -80.66958005264 0.0232501373093 22.289578533130
8.763900000000001 0.0232403520426 -3.616965859468 0.9997250498457 -80.67097964977 0.9997250498457 -80.67097964977 0.0232421267067 22.293213184290
8.764000000000001 0.0232322945579 -3.623385381084 0.9997252286449 -80.67238175361 0.9997252286449 -80.67238175361 0.0232340737726 22.296874254496
8.764100000000001 0.0232241943624 -3.629836241840 0.9997254083055 -80.67378638448 0.9997254083055 -80.67378638448 0.0232259781653 22.300561987162
8.764200000000001 0.0232160511111 -3.636318726529 0.9997255888340 -80.67519356291 0.9997255888340 -80.67519356291 0.0232178395398 22.304276628564
8.764300000000000 0.0232078644753 -3.642833108278 0.9997257702360 -80.67660330841 0.9997257702360 -80.67660330841 0.0232096575681 22.308018418590
8.764400000000000 0.0231996341138 -3.649379670609 0.9997259525177 -80.67801564127 0.9997259525177 -80.67801564127 0.0232014319095 22.311787604040
8.764500000000000 0.0231913596723 -3.655958707638 0.9997261356861 -80.67943058256 0.9997261356861 -80.67943058256 0.0231931622096 22.315584439188
8.764600000000000 0.0231830408070 -3.662570506549 0.9997263197472 -80.68084815271 0.9997263197472 -80.68084815271 0.0231848481253 22.319409174170
8.764700000000001 0.0231746771734 -3.669215353565 0.9997265047065 -80.68226837219 0.9997265047065 -80.68226837219 0.0231764893129 22.323262063324
8.764800000000001 0.0231662683943 -3.675893560216 0.9997266905707 -80.68369126342 0.9997266905707 -80.68369126342 0.0231680853955 22.327143377036
8.764900000000001 0.0231578141160 -3.682605424814 0.9997268773470 -80.68511684745 0.9997268773470 -80.68511684745 0.0231596360196 22.331053373275
8.765000000000001 0.0231493139707 -3.689351253045 0.9997270650412 -80.68654514612 0.9997270650412 -80.68654514612 0.0231511408182 22.334992321281
8.765100000000000 0.0231407676091 -3.696131341746 0.9997272536599 -80.68797618022 0.9997272536599 -80.68797618022 0.0231425994423 22.338960479831
8.765200000000000 0.0231321746362 -3.702946019190 0.9997274432104 -80.68940997323 0.9997274432104 -80.68940997323 0.0231340114972 22.342958133200
8.765300000000000 0.0231235346756 -3.709795600246 0.9997276336991 -80.69084654753 0.9997276336991 -80.69084654753 0.0231253766072 22.346985558931
8.765400000000001 0.0231148473400 -3.716680406186 0.9997278251314 -80.69228592613 0.9997278251315 -80.69228592613 0.0231166943862 22.351043043700
8.765500000000001 0.0231061122801 -3.723600749484 0.9997280175180 -80.69372812987 0.9997280175180 -80.69372812987 0.0231079644833 22.355130841391
8.765600000000001 0.0230973290623 -3.730556973394 0.9997282108612 -80.69517318446 0.9997282108612 -80.69517318446 0.0230991864679 22.359249275922
8.765700000000001 0.0230884973177 -3.737549402002 0.9997284051703 -80.69662111188 0.9997284051703 -80.69662111188 0.0230903599702 22.363398617922
8.765800000000000 0.0230796166388 -3.744578380201 0.9997286004535 -80.69807193638 0.9997286004535 -80.69807193638 0.0230814845829 22.367579165410
8.765900000000000 0.0230706866294 -3.751644238233 0.9997287967150 -80.69952568149 0.9997287967150 -80.69952568149 0.0230725599117 22.371791219103
8.766000000000000 0.0230617068802 -3.758747327385 0.9997289939640 -80.70098237160 0.9997289939640 -80.70098237160 0.0230635855468 22.376035078907
8.766100000000000 0.0230526769736 -3.765888000792 0.9997291922074 -80.70244203152 0.9997291922074 -80.70244203152 0.0230545610714 22.380311054619
8.766200000000001 0.0230435965089 -3.773066599513 0.9997293914513 -80.70390468510 0.9997293914513 -80.70390468510 0.0230454860857 22.384619450606
8.766300000000001 0.0230344650524 -3.780283493489 0.9997295917043 -80.70537035814 0.9997295917043 -80.70537035814 0.0230363601563 22.388960585444
8.766400000000001 0.0230252821676 -3.787539055271 0.9997297929751 -80.70683907663 0.9997297929751 -80.70683907663 0.0230271828467 22.393334781679
8.766500000000001 0.0230160474607 -3.794833623997 0.9997299952685 -80.70831086400 0.9997299952685 -80.70831086400 0.0230179537644 22.397742345810
8.766600000000000 0.0230067604676 -3.802167593031 0.9997301985935 -80.70978574784 0.9997301985935 -80.70978574784 0.0230086724460 22.402183618548
8.766700000000000 0.0229974207574 -3.809541335190 0.9997304029581 -80.71126375383 0.9997304029581 -80.71126375383 0.0229993384604 22.406658924726
8.766800000000000 0.0229880278781 -3.816955237184 0.9997306083704 -80.71274490886 0.9997306083704 -80.71274490886 0.0229899513566 22.411168603259
8.766900000000000 0.0229785814081 -3.824409663799 0.9997308148361 -80.71422923801 0.9997308148361 -80.71422923801 0.0229805107142 22.415712981199
8.767000000000001 0.0229690808446 -3.831905038769 0.9997310223642 -80.71571677121 0.9997310223642 -80.71571677121 0.0229710160308 22.420292429068
8.767100000000001 0.0229595257554 -3.839441745245 0.9997312309640 -80.71720753419 0.9997312309640 -80.71720753419 0.0229614668742 22.424907275742
8.767200000000001 0.0229499156931 -3.847020172012 0.9997314406425 -80.71870155361 0.9997314406425 -80.71870155361 0.0229518627977 22.429557866045
8.767300000000001 0.0229402501633 -3.854640739305 0.9997316514072 -80.72019885888 0.9997316514072 -80.72019885888 0.0229422033083 22.434244573533
8.767400000000000 0.0229305286915 -3.862303863220 0.9997318632681 -80.72169947826 0.9997318632681 -80.72169947826 0.0229324879313 22.438967756163
8.767500000000000 0.0229207508065 -3.870009952048 0.9997320762321 -80.72320343981 0.9997320762321 -80.72320343981 0.0229227161967 22.443727778480
8.767600000000000 0.0229109160095 -3.877759436439 0.9997322903074 -80.72471077320 0.9997322903074 -80.72471077320 0.0229128876065 22.448525020223
8.767700000000001 0.0229010238247 -3.885552735724 0.9997325055028 -80.72622150680 0.9997325055028 -80.72622150680 0.0229030016855 22.453359848557
8.767800000000001 0.0228910737272 -3.893390302065 0.9997327218271 -80.72773567184 0.9997327218271 -80.72773567184 0.0228930579094 22.458232661229
8.767900000000001 0.0228810652344 -3.901272563456 0.9997329392892 -80.72925329710 0.9997329392892 -80.72925329710 0.0228830557961 22.463143832763
8.768000000000001 0.0228709978331 -3.909199969153 0.9997331578981 -80.73077441313 0.9997331578981 -80.73077441313 0.0228729948332 22.468093757386
8.768100000000000 0.0228608710084 -3.917172969414 0.9997333776619 -80.73229905060 0.9997333776619 -80.73229905060 0.0228628745066 22.473082834796
8.768200000000000 0.0228506842287 -3.925192026676 0.9997335985888 -80.73382724117 0.9997335985888 -80.73382724117 0.0228526942860 22.478111476349
8.768300000000000 0.0228404369860 -3.933257597063 0.9997338206891 -80.73535901512 0.9997338206891 -80.73535901512 0.0228424536634 22.483180076286
8.768400000000000 0.0228301287312 -3.941370157862 0.9997340439710 -80.73689440514 0.9997340439710 -80.73689440514 0.0228321520910 22.488289061336
8.768500000000001 0.0228197589254 -3.949530186747 0.9997342684439 -80.73843344336 0.9997342684439 -80.73843344336 0.0228217890306 22.493438850238
8.768600000000001 0.0228093270207 -3.957738171601 0.9997344941185 -80.73997616244 0.9997344941185 -80.73997616244 0.0228113639344 22.498629867494
8.768700000000001 0.0227988324904 -3.965994580128 0.9997347210018 -80.74152259376 0.9997347210018 -80.74152259376 0.0228008762774 22.503862535041
8.768800000000001 0.0227882747132 -3.974299952478 0.9997349491051 -80.74307277431 0.9997349491051 -80.74307277431 0.0227903254389 22.509137324680
8.768900000000000 0.0227776531687 -3.982654762352 0.9997351784372 -80.74462673514 0.9997351784372 -80.74462673514 0.0227797108991 22.514454654640
8.769000000000000 0.0227669672881 -3.991059516762 0.9997354090076 -80.74618451015 0.9997354090076 -80.74618451015 0.0227690320903 22.519814974124
8.769100000000000 0.0227562164857 -3.999514736720 0.9997356408256 -80.74774613427 0.9997356408256 -80.74774613427 0.0227582884276 22.525218744512
8.769200000000000 0.0227454001625 -4.008020958777 0.9997358739029 -80.74931164318 0.9997358739029 -80.74931164318 0.0227474793126 22.530666433278
8.769300000000001 0.0227345177046 -4.016578724782 0.9997361082481 -80.75088107348 0.9997361082481 -80.75088107348 0.0227366041328 22.536158525710
8.769400000000001 0.0227235685562 -4.025188545146 0.9997363438711 -80.75245445832 0.9997363438711 -80.75245445832 0.0227256623330 22.541695472137
8.769500000000001 0.0227125520933 -4.033850977928 0.9997365807822 -80.75403183492 0.9997365807822 -80.75403183492 0.0227146532903 22.547277765084
8.769600000000001 0.0227014676737 -4.042566596455 0.9997368189926 -80.75561324154 0.9997368189926 -80.75561324154 0.0227035763632 22.552905910012
8.769700000000000 0.0226903147123 -4.051335935932 0.9997370585111 -80.75719871311 0.9997370585111 -80.75719871311 0.0226924309679 22.558580384824
8.769800000000000 0.0226790925589 -4.060159584091 0.9997372993502 -80.75878828841 0.9997372993502 -80.75878828841 0.0226812164544 22.564301702257
8.769900000000000 0.0226678005598 -4.069038124119 0.9997375415184 -80.76038200639 0.9997375415184 -80.76038200639 0.0226699321712 22.570070388506
8.770000000000001 0.0226564380967 -4.077972127501 0.9997377850273 -80.76197990396 0.9997377850273 -80.76197990396 0.0226585775003 22.575886944502
8.770100000000001 0.0226450044886 -4.086962211051 0.9997380298894 -80.76358202176 0.9997380298894 -80.76358202176 0.0226471517612 22.581751910098