! Sonnet Data File
! From: emgraph Version : 16.52
! From Project: 171117_Xmon_fullysym
! Data is De-embedded 
! Data File Written: 11/26/2017 21:44:45
!< HDATE 11/26/2017 17:24:49
!< MDATE 11/26/2017 17:24:49
!< PARAMS
!< Lj = 11.0
!< Gap = 1.0
!< Pwid = 2000.0
!< Airgap = 6.0
!< Width = 10.0
!< Lj1 = 8.6
!< END PARAMS
# GHZ S MA R 50.90000
8.600000000000001 0.0256358798223 -0.303966805717 0.9996680903519 -79.01033789319 0.9996680903518 -79.01033789347 0.0256368107936 22.293242664224
!< P1 F=8.6 Eeff=(6.44845572 -2.9799e-5) Z0=(50.9087207 1.17006e-4) R=0.0 C=0.0 
!< P2 F=8.6 Eeff=(6.44845572 -2.9799e-5) Z0=(50.9087207 1.17006e-4) R=0.0 C=0.0 
8.600200000000001 0.0256355717584 -0.306443094212 0.9996680980865 -79.01221095735 0.9996680980865 -79.01221095735 0.0256365028457 22.291973472062
8.600400000000000 0.0256352624808 -0.308920085207 0.9996681058267 -79.01408409387 0.9996681058267 -79.01408409387 0.0256361936637 22.290704798119
8.600600000000000 0.0256349519539 -0.311397751631 0.9996681135986 -79.01595730260 0.9996681135986 -79.01595730260 0.0256358832328 22.289436657178
8.600800000000001 0.0256346401754 -0.313876094816 0.9996681214022 -79.01783058370 0.9996681214022 -79.01783058370 0.0256355715503 22.288169050508
8.601000000000001 0.0256343271410 -0.316355117154 0.9996681292375 -79.01970393741 0.9996681292375 -79.01970393741 0.0256352586122 22.286901979819
8.601200000000000 0.0256340128477 -0.318834820247 0.9996681371047 -79.02157736391 0.9996681371047 -79.02157736391 0.0256349444155 22.285635446543
8.601400000000000 0.0256336972913 -0.321315206433 0.9996681450038 -79.02345086346 0.9996681450038 -79.02345086346 0.0256346289559 22.284369452642
8.601600000000001 0.0256333804679 -0.323796278012 0.9996681529350 -79.02532443627 0.9996681529350 -79.02532443627 0.0256343122294 22.283103999667
8.601800000000001 0.0256330623746 -0.326278036541 0.9996681608983 -79.02719808251 0.9996681608983 -79.02719808251 0.0256339942332 22.281839088935
8.602000000000000 0.0256327430064 -0.328760484729 0.9996681688939 -79.02907180249 0.9996681688939 -79.02907180249 0.0256336749625 22.280574722677
8.602200000000000 0.0256324223613 -0.331243623797 0.9996681769217 -79.03094559631 0.9996681769217 -79.03094559631 0.0256333544150 22.279310901827
8.602400000000001 0.0256321004335 -0.333727457005 0.9996681849820 -79.03281946432 0.9996681849820 -79.03281946432 0.0256330325850 22.278047628848
8.602600000000001 0.0256317772209 -0.336211985400 0.9996681930748 -79.03469340664 0.9996681930748 -79.03469340664 0.0256327094705 22.276784904728
8.602800000000000 0.0256314527190 -0.338697211633 0.9996682012002 -79.03656742353 0.9996682012002 -79.03656742353 0.0256323850668 22.275522731481
8.603000000000000 0.0256311269245 -0.341183137519 0.9996682093583 -79.03844151520 0.9996682093583 -79.03844151520 0.0256320593707 22.274261110546
8.603200000000001 0.0256307998327 -0.343669765604 0.9996682175492 -79.04031568191 0.9996682175492 -79.04031568191 0.0256317323777 22.273000043947
8.603400000000001 0.0256304714405 -0.346157097592 0.9996682257729 -79.04218992385 0.9996682257729 -79.04218992385 0.0256314040843 22.271739533313
8.603600000000000 0.0256301417439 -0.348645135758 0.9996682340297 -79.04406424125 0.9996682340297 -79.04406424125 0.0256310744869 22.270479580106
8.603800000000000 0.0256298107387 -0.351133882664 0.9996682423195 -79.04593863436 0.9996682423195 -79.04593863436 0.0256307435810 22.269220186253
8.604000000000001 0.0256294784214 -0.353623339837 0.9996682506425 -79.04781310337 0.9996682506425 -79.04781310337 0.0256304113634 22.267961353440
8.604200000000001 0.0256291447887 -0.356113509545 0.9996682589988 -79.04968764851 0.9996682589988 -79.04968764851 0.0256300778304 22.266703083067
8.604400000000000 0.0256288098349 -0.358604394687 0.9996682673885 -79.05156227007 0.9996682673885 -79.05156227007 0.0256297429766 22.265445377525
8.604600000000001 0.0256284735584 -0.361095996239 0.9996682758115 -79.05343696818 0.9996682758115 -79.05343696818 0.0256294068004 22.264188237839
8.604800000000001 0.0256281359531 -0.363588317719 0.9996682842683 -79.05531174318 0.9996682842683 -79.05531174318 0.0256290692955 22.262931666309
8.605000000000000 0.0256277970166 -0.366081360321 0.9996682927586 -79.05718659521 0.9996682927586 -79.05718659521 0.0256287304598 22.261675664239
8.605200000000000 0.0256274567441 -0.368575126730 0.9996683012827 -79.05906152456 0.9996683012827 -79.05906152456 0.0256283902882 22.260420233835
8.605400000000001 0.0256271151322 -0.371069618978 0.9996683098407 -79.06093653143 0.9996683098407 -79.06093653143 0.0256280487774 22.259165376479
8.605600000000001 0.0256267721759 -0.373564839756 0.9996683184326 -79.06281161610 0.9996683184326 -79.06281161610 0.0256277059225 22.257911094287
8.605800000000000 0.0256264278728 -0.376060790379 0.9996683270586 -79.06468677872 0.9996683270586 -79.06468677872 0.0256273617211 22.256657388552
8.606000000000000 0.0256260822169 -0.378557474291 0.9996683357188 -79.06656201965 0.9996683357188 -79.06656201965 0.0256270161670 22.255404261763
8.606200000000001 0.0256257352056 -0.381054892929 0.9996683444132 -79.06843733903 0.9996683444132 -79.06843733903 0.0256266692578 22.254151715161
8.606400000000001 0.0256253868346 -0.383553048683 0.9996683531420 -79.07031273712 0.9996683531420 -79.07031273712 0.0256263209890 22.252899750670
8.606600000000000 0.0256250370995 -0.386051943999 0.9996683619053 -79.07218821417 0.9996683619053 -79.07218821417 0.0256259713565 22.251648370105
8.606800000000000 0.0256246859962 -0.388551581117 0.9996683707031 -79.07406377043 0.9996683707031 -79.07406377043 0.0256256203559 22.250397575512
8.607000000000001 0.0256243335207 -0.391051962353 0.9996683795355 -79.07593940613 0.9996683795355 -79.07593940613 0.0256252679834 22.249147368496
8.607200000000001 0.0256239796689 -0.393553090025 0.9996683884028 -79.07781512151 0.9996683884028 -79.07781512151 0.0256249142349 22.247897750834
8.607400000000000 0.0256236244369 -0.396054966276 0.9996683973049 -79.07969091681 0.9996683973049 -79.07969091681 0.0256245591063 22.246648724481
8.607600000000000 0.0256232678201 -0.398557593573 0.9996684062420 -79.08156679228 0.9996684062420 -79.08156679228 0.0256242025933 22.245400291287
8.607800000000001 0.0256229098146 -0.401060974385 0.9996684152143 -79.08344274817 0.9996684152143 -79.08344274817 0.0256238446917 22.244152453008
8.608000000000001 0.0256225504156 -0.403565111064 0.9996684242216 -79.08531878474 0.9996684242216 -79.08531878474 0.0256234853969 22.242905211842
8.608200000000000 0.0256221896198 -0.406070005674 0.9996684332643 -79.08719490220 0.9996684332643 -79.08719490220 0.0256231247055 22.241658569224
8.608400000000001 0.0256218274225 -0.408575660691 0.9996684423424 -79.08907110082 0.9996684423424 -79.08907110082 0.0256227626129 22.240412527271
8.608600000000001 0.0256214638196 -0.411082078651 0.9996684514560 -79.09094738084 0.9996684514560 -79.09094738084 0.0256223991149 22.239167087704
8.608800000000000 0.0256210988062 -0.413589261987 0.9996684606052 -79.09282374255 0.9996684606052 -79.09282374255 0.0256220342067 22.237922252819
8.609000000000000 0.0256207323788 -0.416097212851 0.9996684697901 -79.09470018615 0.9996684697901 -79.09470018615 0.0256216678847 22.236678024104
8.609200000000001 0.0256203645330 -0.418605933797 0.9996684790108 -79.09657671191 0.9996684790108 -79.09657671191 0.0256213001445 22.235434403540
8.609400000000001 0.0256199952638 -0.421115427436 0.9996684882675 -79.09845332011 0.9996684882675 -79.09845332011 0.0256209309812 22.234191393253
8.609600000000000 0.0256196245679 -0.423625695561 0.9996684975602 -79.10033001095 0.9996684975602 -79.10033001095 0.0256205603914 22.232948995026
8.609800000000000 0.0256192524398 -0.426136741463 0.9996685068891 -79.10220678475 0.9996685068891 -79.10220678475 0.0256201883697 22.231707210920
8.610000000000001 0.0256188788761 -0.428648566899 0.9996685162541 -79.10408364172 0.9996685162541 -79.10408364172 0.0256198149126 22.230466042724
8.610200000000001 0.0256185038723 -0.431161174583 0.9996685256556 -79.10596058211 0.9996685256556 -79.10596058211 0.0256194400157 22.229225492202
8.610400000000000 0.0256181274234 -0.433674567042 0.9996685350936 -79.10783760623 0.9996685350936 -79.10783760623 0.0256190636739 22.227985561827
8.610600000000000 0.0256177495253 -0.436188746782 0.9996685445681 -79.10971471430 0.9996685445681 -79.10971471430 0.0256186858832 22.226746253242
8.610800000000001 0.0256173701733 -0.438703716313 0.9996685540793 -79.11159190661 0.9996685540793 -79.11159190661 0.0256183066388 22.225507568578
8.611000000000001 0.0256169893637 -0.441219477791 0.9996685636273 -79.11346918338 0.9996685636273 -79.11346918338 0.0256179259370 22.224269509601
8.611200000000000 0.0256166070907 -0.443736034422 0.9996685732123 -79.11534654493 0.9996685732123 -79.11534654493 0.0256175437722 22.223032078655
8.611400000000000 0.0256162233512 -0.446253387972 0.9996685828343 -79.11722399146 0.9996685828343 -79.11722399146 0.0256171601411 22.221795277310
8.611600000000001 0.0256158381403 -0.448771541154 0.9996685924934 -79.11910152326 0.9996685924934 -79.11910152326 0.0256167750387 22.220559107801
8.611800000000001 0.0256154514527 -0.451290497044 0.9996686021898 -79.12097914064 0.9996686021898 -79.12097914064 0.0256163884600 22.219323572239
8.612000000000000 0.0256150632842 -0.453810257765 0.9996686119235 -79.12285684383 0.9996686119235 -79.12285684383 0.0256160004007 22.218088672704
8.612200000000001 0.0256146736304 -0.456330825944 0.9996686216948 -79.12473463310 0.9996686216948 -79.12473463310 0.0256156108563 22.216854411147
8.612400000000001 0.0256142824865 -0.458852204308 0.9996686315036 -79.12661250873 0.9996686315036 -79.12661250873 0.0256152198221 22.215620789531
8.612600000000000 0.0256138898487 -0.461374394947 0.9996686413501 -79.12849047095 0.9996686413501 -79.12849047095 0.0256148272941 22.214387809771
8.612800000000000 0.0256134957111 -0.463897401100 0.9996686512345 -79.13036852010 0.9996686512345 -79.13036852010 0.0256144332668 22.213155474352
8.613000000000001 0.0256131000703 -0.466421224757 0.9996686611568 -79.13224665637 0.9996686611568 -79.13224665637 0.0256140377364 22.211923784834
8.613200000000001 0.0256127029204 -0.468945869295 0.9996686711171 -79.13412488013 0.9996686711171 -79.13412488013 0.0256136406972 22.210692743849
8.613400000000000 0.0256123042571 -0.471471336987 0.9996686811157 -79.13600319161 0.9996686811157 -79.13600319161 0.0256132421448 22.209462353239
8.613600000000000 0.0256119040763 -0.473997630076 0.9996686911525 -79.13788159106 0.9996686911525 -79.13788159106 0.0256128420753 22.208232615003
8.613800000000001 0.0256115023727 -0.476524751755 0.9996687012277 -79.13976007880 0.9996687012277 -79.13976007880 0.0256124404832 22.207003531424
8.614000000000001 0.0256110991419 -0.479052704382 0.9996687113415 -79.14163865507 0.9996687113415 -79.14163865507 0.0256120373641 22.205775104390
8.614200000000000 0.0256106943786 -0.481581490944 0.9996687214939 -79.14351732019 0.9996687214939 -79.14351732019 0.0256116327129 22.204547336255
8.614400000000000 0.0256102880779 -0.484111114040 0.9996687316851 -79.14539607445 0.9996687316851 -79.14539607445 0.0256112265245 22.203320229373
8.614600000000001 0.0256098802354 -0.486641576400 0.9996687419151 -79.14727491810 0.9996687419152 -79.14727491810 0.0256108187946 22.202093785524
8.614800000000001 0.0256094708468 -0.489172880371 0.9996687521842 -79.14915385141 0.9996687521842 -79.14915385141 0.0256104095188 22.200868006718
8.615000000000000 0.0256090599060 -0.491705029226 0.9996687624924 -79.15103287472 0.9996687624924 -79.15103287472 0.0256099986911 22.199642895675
8.615200000000000 0.0256086474097 -0.494238024958 0.9996687728398 -79.15291198823 0.9996687728398 -79.15291198823 0.0256095863082 22.198418453901
8.615400000000001 0.0256082333513 -0.496771871276 0.9996687832267 -79.15479119233 0.9996687832267 -79.15479119233 0.0256091723634 22.197194684218
8.615600000000001 0.0256078177266 -0.499306570450 0.9996687936530 -79.15667048726 0.9996687936530 -79.15667048726 0.0256087568527 22.195971588577
8.615800000000000 0.0256074005310 -0.501842125093 0.9996688041189 -79.15854987329 0.9996688041189 -79.15854987329 0.0256083397713 22.194749169108
8.616000000000000 0.0256069817592 -0.504378538223 0.9996688146245 -79.16042935075 0.9996688146245 -79.16042935075 0.0256079211139 22.193527428131
8.616200000000001 0.0256065614059 -0.506915812758 0.9996688251700 -79.16230891992 0.9996688251700 -79.16230891992 0.0256075008754 22.192306367875
8.616400000000001 0.0256061394675 -0.509453950831 0.9996688357555 -79.16418858103 0.9996688357555 -79.16418858103 0.0256070790521 22.191085990096
8.616600000000000 0.0256057159365 -0.511992956445 0.9996688463811 -79.16606833453 0.9996688463811 -79.16606833453 0.0256066556364 22.189866298158
8.616800000000001 0.0256052908104 -0.514532831247 0.9996688570469 -79.16794818055 0.9996688570469 -79.16794818055 0.0256062306258 22.188647293194
8.617000000000001 0.0256048640825 -0.517073578886 0.9996688677531 -79.16982811948 0.9996688677531 -79.16982811948 0.0256058040138 22.187428978002
8.617200000000000 0.0256044357484 -0.519615201944 0.9996688784998 -79.17170815159 0.9996688784998 -79.17170815159 0.0256053757958 22.186211354635
8.617400000000000 0.0256040058027 -0.522157703295 0.9996688892871 -79.17358827720 0.9996688892871 -79.17358827720 0.0256049459666 22.184994425562
8.617600000000001 0.0256035742405 -0.524701085618 0.9996689001151 -79.17546849658 0.9996689001151 -79.17546849658 0.0256045145212 22.183778193124
8.617800000000001 0.0256031410562 -0.527245352346 0.9996689109840 -79.17734881008 0.9996689109840 -79.17734881008 0.0256040814538 22.182562659557
8.618000000000000 0.0256027062448 -0.529790506203 0.9996689218939 -79.17922921798 0.9996689218939 -79.17922921798 0.0256036467597 22.181347827117
8.618200000000000 0.0256022698018 -0.532336549464 0.9996689328449 -79.18110972054 0.9996689328449 -79.18110972054 0.0256032104344 22.180133698063
8.618400000000001 0.0256018317211 -0.534883485763 0.9996689438371 -79.18299031813 0.9996689438371 -79.18299031813 0.0256027724716 22.178920274950
8.618600000000001 0.0256013919972 -0.537431318416 0.9996689548708 -79.18487101107 0.9996689548708 -79.18487101107 0.0256023328658 22.177707560133
8.618800000000000 0.0256009506260 -0.539980049340 0.9996689659459 -79.18675179959 0.9996689659459 -79.18675179959 0.0256018916131 22.176495555600
8.619000000000000 0.0256005076012 -0.542529682250 0.9996689770627 -79.18863268408 0.9996689770627 -79.18863268408 0.0256014487070 22.175284264185
8.619200000000001 0.0256000629180 -0.545080219921 0.9996689882213 -79.19051366481 0.9996689882213 -79.19051366481 0.0256010041429 22.174073687910
8.619400000000001 0.0255996165715 -0.547631665008 0.9996689994218 -79.19239474206 0.9996689994218 -79.19239474206 0.0256005579157 22.172863829131
8.619600000000000 0.0255991685555 -0.550184020944 0.9996690106643 -79.19427591621 0.9996690106643 -79.19427591621 0.0256001100194 22.171654690515
8.619800000000000 0.0255987188643 -0.552737291141 0.9996690219491 -79.19615718758 0.9996690219491 -79.19615718758 0.0255996604481 22.170446274550
8.620000000000001 0.0255982674926 -0.555291478349 0.9996690332761 -79.19803855649 0.9996690332761 -79.19803855649 0.0255992091967 22.169238583701
8.620200000000001 0.0255978144361 -0.557846585253 0.9996690446456 -79.19992002319 0.9996690446456 -79.19992002319 0.0255987562607 22.168031619837
8.620400000000000 0.0255973596890 -0.560402614819 0.9996690560576 -79.20180158803 0.9996690560576 -79.20180158803 0.0255983016344 22.166825385725
8.620600000000001 0.0255969032447 -0.562959570968 0.9996690675124 -79.20368325138 0.9996690675124 -79.20368325138 0.0255978453113 22.165619884125
8.620800000000001 0.0255964450991 -0.565517455948 0.9996690790100 -79.20556501349 0.9996690790100 -79.20556501349 0.0255973872870 22.164415117052
8.621000000000000 0.0255959852455 -0.568076273429 0.9996690905506 -79.20744687475 0.9996690905506 -79.20744687475 0.0255969275553 22.163211087331
8.621200000000000 0.0255955236795 -0.570636026175 0.9996691021344 -79.20932883542 0.9996691021344 -79.20932883542 0.0255964661113 22.162007796934
8.621400000000001 0.0255950603947 -0.573196717492 0.9996691137613 -79.21121089588 0.9996691137613 -79.21121089588 0.0255960029488 22.160805248988
8.621600000000001 0.0255945953852 -0.575758350862 0.9996691254317 -79.21309305647 0.9996691254317 -79.21309305647 0.0255955380621 22.159603445726
8.621800000000000 0.0255941286457 -0.578320929237 0.9996691371457 -79.21497531750 0.9996691371457 -79.21497531750 0.0255950714455 22.158402389876
8.622000000000000 0.0255936601717 -0.580884455187 0.9996691489033 -79.21685767925 0.9996691489033 -79.21685767925 0.0255946030947 22.157202083320
8.622200000000001 0.0255931899557 -0.583448932791 0.9996691607047 -79.21874014214 0.9996691607047 -79.21874014214 0.0255941330024 22.156002529417
8.622400000000001 0.0255927179934 -0.586014364643 0.9996691725501 -79.22062270643 0.9996691725501 -79.22062270643 0.0255936611640 22.154803730162
8.622600000000000 0.0255922442779 -0.588580754621 0.9996691844397 -79.22250537252 0.9996691844397 -79.22250537252 0.0255931875728 22.153605688430
8.622800000000000 0.0255917688044 -0.591148105271 0.9996691963734 -79.22438814071 0.9996691963734 -79.22438814071 0.0255927122238 22.152408406740
8.623000000000001 0.0255912915664 -0.593716420544 0.9996692083516 -79.22627101136 0.9996692083516 -79.22627101136 0.0255922351106 22.151211887641
8.623200000000001 0.0255908125589 -0.596285702811 0.9996692203742 -79.22815398477 0.9996692203742 -79.22815398477 0.0255917562284 22.150016133726
8.623400000000000 0.0255903317752 -0.598855956329 0.9996692324416 -79.23003706135 0.9996692324416 -79.23003706135 0.0255912755702 22.148821147696
8.623600000000000 0.0255898492105 -0.601427183594 0.9996692445538 -79.23192024136 0.9996692445538 -79.23192024136 0.0255907931313 22.147626931869
8.623800000000001 0.0255893648575 -0.603999388745 0.9996692567110 -79.23380352523 0.9996692567110 -79.23380352523 0.0255903089044 22.146433489406
8.624000000000001 0.0255888787115 -0.606572574418 0.9996692689133 -79.23568691325 0.9996692689133 -79.23568691325 0.0255898228848 22.145240822548
8.624200000000000 0.0255883907661 -0.609146744080 0.9996692811608 -79.23757040579 0.9996692811608 -79.23757040579 0.0255893350663 22.144048934220
8.624400000000001 0.0255879010152 -0.611721901403 0.9996692934537 -79.23945400320 0.9996692934537 -79.23945400320 0.0255888454425 22.142857826997
8.624600000000001 0.0255874094523 -0.614298049986 0.9996693057922 -79.24133770586 0.9996693057922 -79.24133770586 0.0255883540071 22.141667503716
8.624800000000000 0.0255869160734 -0.616875192172 0.9996693181764 -79.24322151403 0.9996693181764 -79.24322151403 0.0255878607559 22.140477966432
8.625000000000000 0.0255864208699 -0.619453332559 0.9996693306065 -79.24510542819 0.9996693306065 -79.24510542819 0.0255873656805 22.139289218889
8.625200000000001 0.0255859238381 -0.622032473595 0.9996693430826 -79.24698944856 0.9996693430826 -79.24698944856 0.0255868687771 22.138101262712
8.625400000000001 0.0255854249705 -0.624612619060 0.9996693556048 -79.24887357559 0.9996693556048 -79.24887357559 0.0255863700383 22.136914101448
8.625600000000000 0.0255849242607 -0.627193772989 0.9996693681733 -79.25075780965 0.9996693681733 -79.25075780965 0.0255858694576 22.135727737711
8.625800000000000 0.0255844217031 -0.629775938292 0.9996693807883 -79.25264215106 0.9996693807883 -79.25264215106 0.0255853670295 22.134542174162
8.626000000000001 0.0255839172915 -0.632359118658 0.9996693934499 -79.25452660021 0.9996693934499 -79.25452660021 0.0255848627476 22.133357413578
8.626200000000001 0.0255834110199 -0.634943317196 0.9996694061583 -79.25641115742 0.9996694061583 -79.25641115742 0.0255843566062 22.132173458764
8.626400000000000 0.0255829028818 -0.637528537763 0.9996694189135 -79.25829582310 0.9996694189135 -79.25829582310 0.0255838485986 22.130990312494
8.626600000000000 0.0255823928708 -0.640114784139 0.9996694317159 -79.26018059761 0.9996694317159 -79.26018059761 0.0255833387183 22.129807977610
8.626800000000001 0.0255818809804 -0.642702059738 0.9996694445655 -79.26206548133 0.9996694445655 -79.26206548133 0.0255828269590 22.128626457129
8.627000000000001 0.0255813672055 -0.645290367555 0.9996694574625 -79.26395047456 0.9996694574625 -79.26395047456 0.0255823133157 22.127445753322
8.627200000000000 0.0255808515381 -0.647879711983 0.9996694704070 -79.26583557778 0.9996694704070 -79.26583557778 0.0255817977801 22.126265869853
8.627400000000000 0.0255803339732 -0.650470096127 0.9996694833992 -79.26772079128 0.9996694833992 -79.26772079128 0.0255812803474 22.125086808821
8.627600000000001 0.0255798145037 -0.653061523760 0.9996694964393 -79.26960611547 0.9996694964393 -79.26960611547 0.0255807610104 22.123908573608
8.627800000000001 0.0255792931224 -0.655653998863 0.9996695095274 -79.27149155078 0.9996695095274 -79.27149155078 0.0255802397620 22.122731167382
8.628000000000000 0.0255787698251 -0.658247524185 0.9996695226637 -79.27337709745 0.9996695226637 -79.27337709745 0.0255797165979 22.121554591949
8.628200000000001 0.0255782446029 -0.660842104337 0.9996695358482 -79.27526275601 0.9996695358482 -79.27526275601 0.0255791915093 22.120378851491
8.628400000000001 0.0255777174507 -0.663437742497 0.9996695490813 -79.27714852675 0.9996695490813 -79.27714852675 0.0255786644911 22.119203948139
8.628600000000000 0.0255771883613 -0.666034442652 0.9996695623631 -79.27903441010 0.9996695623631 -79.27903441010 0.0255781355359 22.118029885271
8.628800000000000 0.0255766573282 -0.668632208519 0.9996695756937 -79.28092040644 0.9996695756937 -79.28092040644 0.0255776046374 22.116856665621
8.629000000000001 0.0255761243450 -0.671231043536 0.9996695890733 -79.28280651614 0.9996695890733 -79.28280651614 0.0255770717893 22.115684292258
8.629200000000001 0.0255755894054 -0.673830951534 0.9996696025020 -79.28469273958 0.9996696025020 -79.28469273958 0.0255765369850 22.114512767954
8.629400000000000 0.0255750525019 -0.676431936563 0.9996696159800 -79.28657907720 0.9996696159800 -79.28657907720 0.0255760002173 22.113342096128
8.629600000000000 0.0255745136282 -0.679034002241 0.9996696295075 -79.28846552937 0.9996696295075 -79.28846552937 0.0255754614796 22.112172279615
8.629800000000001 0.0255739727770 -0.681637152774 0.9996696430847 -79.29035209650 0.9996696430847 -79.29035209650 0.0255749207649 22.111003321535
8.630000000000001 0.0255734299427 -0.684241391195 0.9996696567117 -79.29223877894 0.9996696567117 -79.29223877894 0.0255743780674 22.109835224708
8.630200000000000 0.0255728851180 -0.686846721833 0.9996696703886 -79.29412557711 0.9996696703886 -79.29412557711 0.0255738333799 22.108667992155
8.630400000000000 0.0255723382959 -0.689453148334 0.9996696841157 -79.29601249142 0.9996696841157 -79.29601249142 0.0255732866954 22.107501627419
8.630600000000001 0.0255717894692 -0.692060675036 0.9996696978931 -79.29789952230 0.9996696978931 -79.29789952230 0.0255727380066 22.106336133317
8.630800000000001 0.0255712386311 -0.694669305866 0.9996697117210 -79.29978667014 0.9996697117210 -79.29978667014 0.0255721873069 22.105171512929
8.631000000000000 0.0255706857752 -0.697279044205 0.9996697255996 -79.30167393533 0.9996697255996 -79.30167393533 0.0255716345896 22.104007769500
8.631200000000000 0.0255701308946 -0.699889894121 0.9996697395290 -79.30356131825 0.9996697395290 -79.30356131825 0.0255710798481 22.102844905881
8.631400000000001 0.0255695739813 -0.702501859998 0.9996697535094 -79.30544881940 0.9996697535094 -79.30544881940 0.0255705230742 22.101682925838
8.631600000000001 0.0255690150293 -0.705114945395 0.9996697675410 -79.30733643911 0.9996697675410 -79.30733643911 0.0255699642620 22.100521831855
8.631800000000000 0.0255684540312 -0.707729154381 0.9996697816239 -79.30922417782 0.9996697816239 -79.30922417782 0.0255694034041 22.099361627550
8.632000000000000 0.0255678909799 -0.710344491135 0.9996697957584 -79.31111203595 0.9996697957584 -79.31111203595 0.0255688404934 22.098202315886
8.632200000000001 0.0255673258684 -0.712960959479 0.9996698099445 -79.31300001391 0.9996698099445 -79.31300001391 0.0255682755228 22.097043900199
8.632400000000001 0.0255667586889 -0.715578563905 0.9996698241826 -79.31488811216 0.9996698241826 -79.31488811216 0.0255677084847 22.095886383885
8.632600000000000 0.0255661894355 -0.718197307728 0.9996698384726 -79.31677633104 0.9996698384726 -79.31677633104 0.0255671393730 22.094729769758
8.632800000000001 0.0255656180991 -0.720817196079 0.9996698528150 -79.31866467110 0.9996698528150 -79.31866467110 0.0255665681787 22.093574061831
8.633000000000001 0.0255650446741 -0.723438232107 0.9996698672096 -79.32055313264 0.9996698672096 -79.32055313264 0.0255659948963 22.092419262675
8.633200000000000 0.0255644691530 -0.726060420369 0.9996698816570 -79.32244171613 0.9996698816570 -79.32244171613 0.0255654195181 22.091265375536
8.633400000000000 0.0255638915271 -0.728683765385 0.9996698961571 -79.32433042206 0.9996698961571 -79.32433042206 0.0255648420355 22.090112404553
8.633600000000001 0.0255633117907 -0.731308270662 0.9996699107102 -79.32621925078 0.9996699107102 -79.32621925078 0.0255642624428 22.088960352157
8.633800000000001 0.0255627299357 -0.733933940555 0.9996699253163 -79.32810820276 0.9996699253163 -79.32810820276 0.0255636807318 22.087809222261
8.634000000000000 0.0255621459551 -0.736560779331 0.9996699399758 -79.32999727840 0.9996699399758 -79.32999727840 0.0255630968958 22.086659017662
8.634200000000000 0.0255615598391 -0.739188792220 0.9996699546888 -79.33188647829 0.9996699546888 -79.33188647829 0.0255625109247 22.085509743052
8.634400000000001 0.0255609715839 -0.741817981798 0.9996699694555 -79.33377580265 0.9996699694555 -79.33377580265 0.0255619228148 22.084361399976
8.634600000000001 0.0255603811799 -0.744448353112 0.9996699842760 -79.33566525204 0.9996699842760 -79.33566525204 0.0255613325565 22.083213993060
8.634800000000000 0.0255597886191 -0.747079910897 0.9996699991506 -79.33755482694 0.9996699991506 -79.33755482694 0.0255607401418 22.082067525700
8.635000000000000 0.0255591938961 -0.749712658227 0.9996700140794 -79.33944452765 0.9996700140794 -79.33944452765 0.0255601455653 22.080922000397
8.635200000000001 0.0255585970001 -0.752346601280 0.9996700290628 -79.34133435481 0.9996700290628 -79.34133435481 0.0255595488162 22.079777421917
8.635400000000001 0.0255579979256 -0.754981742881 0.9996700441006 -79.34322430875 0.9996700441006 -79.34322430875 0.0255589498891 22.078633793007
8.635600000000000 0.0255573966644 -0.757618088220 0.9996700591934 -79.34511438995 0.9996700591934 -79.34511438995 0.0255583487756 22.077491117034
8.635800000000000 0.0255567932087 -0.760255641204 0.9996700743411 -79.34700459886 0.9996700743411 -79.34700459886 0.0255577454681 22.076349397981
8.636000000000001 0.0255561875504 -0.762894406639 0.9996700895440 -79.34889493596 0.9996700895440 -79.34889493596 0.0255571399584 22.075208639200
8.636200000000001 0.0255555796825 -0.765534388554 0.9996701048023 -79.35078540167 0.9996701048023 -79.35078540167 0.0255565322395 22.074068843931
8.636400000000000 0.0255549695958 -0.768175592172 0.9996701201162 -79.35267599652 0.9996701201162 -79.35267599652 0.0255559223022 22.072930016341
8.636600000000001 0.0255543572835 -0.770818021314 0.9996701354859 -79.35456672090 0.9996701354859 -79.35456672090 0.0255553101398 22.071792159503
8.636800000000001 0.0255537427378 -0.773461680436 0.9996701509115 -79.35645757530 0.9996701509115 -79.35645757530 0.0255546957443 22.070655277111
8.637000000000000 0.0255531259494 -0.776106574717 0.9996701663933 -79.35834856023 0.9996701663933 -79.35834856023 0.0255540791067 22.069519373190
8.637200000000000 0.0255525069113 -0.778752708365 0.9996701819315 -79.36023967612 0.9996701819315 -79.36023967612 0.0255534602197 22.068384450865
8.637400000000001 0.0255518856151 -0.781400085947 0.9996701975262 -79.36213092346 0.9996701975262 -79.36213092346 0.0255528390751 22.067250514124
8.637600000000001 0.0255512620533 -0.784048711883 0.9996702131777 -79.36402230269 0.9996702131777 -79.36402230269 0.0255522156653 22.066117566328
8.637800000000000 0.0255506362167 -0.786698591263 0.9996702288862 -79.36591381435 0.9996702288862 -79.36591381435 0.0255515899811 22.064985611598
8.638000000000000 0.0255500080980 -0.789349728192 0.9996702446517 -79.36780545887 0.9996702446517 -79.36780545887 0.0255509620153 22.063854653446
8.638200000000001 0.0255493776890 -0.792002127570 0.9996702604747 -79.36969723673 0.9996702604747 -79.36969723673 0.0255503317597 22.062724695281
8.638400000000001 0.0255487449809 -0.794655794317 0.9996702763552 -79.37158914845 0.9996702763552 -79.37158914845 0.0255496992053 22.061595741268
8.638600000000000 0.0255481099650 -0.797310733324 0.9996702922936 -79.37348119453 0.9996702922936 -79.37348119453 0.0255490643436 22.060467795294
8.638800000000000 0.0255474726348 -0.799966948404 0.9996703082898 -79.37537337537 0.9996703082898 -79.37537337537 0.0255484271680 22.059340860453
8.639000000000001 0.0255468329797 -0.802624445325 0.9996703243443 -79.37726569158 0.9996703243443 -79.37726569158 0.0255477876680 22.058214941473
8.639200000000001 0.0255461909930 -0.805283228192 0.9996703404571 -79.37915814355 0.9996703404571 -79.37915814355 0.0255471458369 22.057090041313
8.639400000000000 0.0255455466651 -0.807943302360 0.9996703566286 -79.38105073185 0.9996703566286 -79.38105073185 0.0255465016649 22.055966164449
8.639600000000000 0.0255448999876 -0.810604672674 0.9996703728589 -79.38294345698 0.9996703728589 -79.38294345698 0.0255458551439 22.054843314555
8.639800000000001 0.0255442509527 -0.813267343475 0.9996703891481 -79.38483631939 0.9996703891481 -79.38483631939 0.0255452062658 22.053721495403
8.640000000000001 0.0255435995514 -0.815931319932 0.9996704054966 -79.38672931960 0.9996704054966 -79.38672931960 0.0255445550219 22.052600710914
8.640200000000000 0.0255429457745 -0.818596607193 0.9996704219045 -79.38862245817 0.9996704219045 -79.38862245817 0.0255439014028 22.051480965425