! Sonnet Data File
! From: emgraph Version : 16.52
! From Project: 171117_Xmon_fullysym
! Data is De-embedded 
! Data File Written: 11/26/2017 17:14:22
!< HDATE 11/22/2017 16:48:52
!< MDATE 11/23/2017 10:16:42
!< PARAMS
!< Lj = 11.0
!< Gap = 1.0
!< Pwid = 2000.0
!< Airgap = 6.0
!< Width = 10.0
!< Lj1 = 10.15
!< END PARAMS
# GHZ S MA R 50.90000
8.680000000000000 0.0252012554630 -1.452616591628 0.9996790096227 -79.77768276245 0.9996790096212 -79.77768276233 0.0252022609639 21.907831328225
!< P1 F=8.68 Eeff=(6.44843488 -2.9797e-5) Z0=(50.9086135 1.17022e-4) R=0.0 C=0.0 
!< P2 F=8.68 Eeff=(6.44843488 -2.9797e-5) Z0=(50.9086135 1.17022e-4) R=0.0 C=0.0 
8.680100000000001 0.0252005666339 -1.454154848735 0.9996790265649 -79.77865049446 0.9996790265649 -79.77865049446 0.0252015722796 21.907435289248
8.680200000000001 0.0251998765327 -1.455693835351 0.9996790435379 -79.77961830097 0.9996790435379 -79.77961830097 0.0252008823251 21.907039841261
8.680300000000001 0.0251991851529 -1.457233560539 0.9996790605423 -79.78058618230 0.9996790605423 -79.78058618230 0.0252001910923 21.906644987033
8.680400000000001 0.0251984924910 -1.458774027199 0.9996790775783 -79.78155413865 0.9996790775783 -79.78155413865 0.0251994985779 21.906250727410
8.680500000000000 0.0251977985434 -1.460315237089 0.9996790946460 -79.78252217024 0.9996790946460 -79.78252217024 0.0251988047780 21.905857064600
8.680600000000000 0.0251971033070 -1.461857191791 0.9996791117453 -79.78349027724 0.9996791117453 -79.78349027724 0.0251981096897 21.905464000271
8.680700000000000 0.0251964067796 -1.463399893315 0.9996791288766 -79.78445845978 0.9996791288766 -79.78445845978 0.0251974133108 21.905071534905
8.680800000000001 0.0251957089574 -1.464943343340 0.9996791460396 -79.78542671809 0.9996791460396 -79.78542671809 0.0251967156375 21.904679670979
8.680900000000001 0.0251950098377 -1.466487543735 0.9996791632345 -79.78639505233 0.9996791632345 -79.78639505233 0.0251960166670 21.904288409626
8.681000000000001 0.0251943094180 -1.468032495924 0.9996791804614 -79.78736346264 0.9996791804614 -79.78736346264 0.0251953163969 21.903897752161
8.681100000000001 0.0251936076952 -1.469578202010 0.9996791977203 -79.78833194921 0.9996791977203 -79.78833194921 0.0251946148241 21.903507699835
8.681200000000000 0.0251929046639 -1.471124665011 0.9996792150115 -79.78930051236 0.9996792150115 -79.78930051236 0.0251939119431 21.903118255383
8.681300000000000 0.0251922003235 -1.472671885369 0.9996792323348 -79.79026915211 0.9996792323348 -79.79026915211 0.0251932077534 21.902729419223
8.681400000000000 0.0251914946697 -1.474219865991 0.9996792496905 -79.79123786873 0.9996792496905 -79.79123786873 0.0251925022506 21.902341193110
8.681500000000000 0.0251907876983 -1.475768608771 0.9996792670785 -79.79220666246 0.9996792670785 -79.79220666246 0.0251917954306 21.901953579555
8.681600000000001 0.0251900794090 -1.477318114224 0.9996792844989 -79.79317553332 0.9996792844989 -79.79317553332 0.0251910872931 21.901566578625
8.681700000000001 0.0251893697956 -1.478868386323 0.9996793019520 -79.79414448167 0.9996793019520 -79.79414448167 0.0251903778318 21.901180192941
8.681800000000001 0.0251886588578 -1.480419425010 0.9996793194376 -79.79511350752 0.9996793194376 -79.79511350752 0.0251896670465 21.900794423065
8.681900000000001 0.0251879465892 -1.481971233828 0.9996793369557 -79.79608261126 0.9996793369557 -79.79608261126 0.0251889549309 21.900409272121
8.682000000000000 0.0251872329882 -1.483523814600 0.9996793545069 -79.79705179299 0.9996793545069 -79.79705179299 0.0251882414831 21.900024740382
8.682100000000000 0.0251865180520 -1.485077167820 0.9996793720906 -79.79802105286 0.9996793720906 -79.79802105286 0.0251875267006 21.899640830248
8.682200000000000 0.0251858017771 -1.486631296618 0.9996793897073 -79.79899039108 0.9996793897073 -79.79899039108 0.0251868105798 21.899257542474
8.682300000000000 0.0251850841599 -1.488186202910 0.9996794073570 -79.79995980787 0.9996794073570 -79.79995980787 0.0251860931170 21.898874879115
8.682400000000001 0.0251843651973 -1.489741888362 0.9996794250397 -79.80092930340 0.9996794250397 -79.80092930340 0.0251853743092 21.898492841779
8.682500000000001 0.0251836448858 -1.491298355264 0.9996794427556 -79.80189887788 0.9996794427556 -79.80189887788 0.0251846541528 21.898111432121
8.682600000000001 0.0251829232224 -1.492855605170 0.9996794605046 -79.80286853149 0.9996794605046 -79.80286853149 0.0251839326450 21.897730651728
8.682700000000001 0.0251822002043 -1.494413640282 0.9996794782870 -79.80383826439 0.9996794782870 -79.80383826439 0.0251832097828 21.897350501694
8.682800000000000 0.0251814758262 -1.495972463341 0.9996794961027 -79.80480807690 0.9996794961027 -79.80480807690 0.0251824855611 21.896970984757
8.682900000000000 0.0251807500886 -1.497532074288 0.9996795139518 -79.80577796899 0.9996795139518 -79.80577796899 0.0251817599802 21.896592100889
8.683000000000000 0.0251800229838 -1.499092477822 0.9996795318346 -79.80674794110 0.9996795318346 -79.80674794110 0.0251810330324 21.896213853352
8.683100000000001 0.0251792945108 -1.500653674180 0.9996795497508 -79.80771799330 0.9996795497508 -79.80771799330 0.0251803047168 21.895836243258
8.683200000000001 0.0251785646664 -1.502215665638 0.9996795677008 -79.80868812578 0.9996795677008 -79.80868812578 0.0251795750303 21.895459271772
8.683300000000001 0.0251778334458 -1.503778455030 0.9996795856846 -79.80965833881 0.9996795856846 -79.80965833881 0.0251788439680 21.895082941241
8.683400000000001 0.0251771008462 -1.505342043937 0.9996796037021 -79.81062863257 0.9996796037021 -79.81062863257 0.0251781115270 21.894707253166
8.683500000000000 0.0251763668647 -1.506906434303 0.9996796217537 -79.81159900722 0.9996796217537 -79.81159900722 0.0251773777045 21.894332208879
8.683600000000000 0.0251756314999 -1.508471626824 0.9996796398391 -79.81256946285 0.9996796398391 -79.81256946285 0.0251766424991 21.893957809468
8.683700000000000 0.0251748947431 -1.510037626783 0.9996796579587 -79.81353999996 0.9996796579587 -79.81353999996 0.0251759059021 21.893584058531
8.683800000000000 0.0251741565959 -1.511604433361 0.9996796761124 -79.81451061846 0.9996796761124 -79.81451061846 0.0251751679152 21.893210955623
8.683900000000001 0.0251734170521 -1.513172049831 0.9996796943003 -79.81548131873 0.9996796943003 -79.81548131873 0.0251744285320 21.892838504122
8.684000000000001 0.0251726761107 -1.514740477388 0.9996797125225 -79.81645210081 0.9996797125225 -79.81645210081 0.0251736877516 21.892466704066
8.684100000000001 0.0251719337646 -1.516309720294 0.9996797307793 -79.81742296513 0.9996797307793 -79.81742296513 0.0251729455669 21.892095558680
8.684200000000001 0.0251711900145 -1.517879777669 0.9996797490704 -79.81839391165 0.9996797490704 -79.81839391165 0.0251722019785 21.891725068526
8.684300000000000 0.0251704448530 -1.519450654322 0.9996797673962 -79.81936494079 0.9996797673962 -79.81936494079 0.0251714569792 21.891355236419
8.684400000000000 0.0251696982796 -1.521022350556 0.9996797857565 -79.82033605259 0.9996797857565 -79.82033605259 0.0251707105685 21.890986062894
8.684500000000000 0.0251689502888 -1.522594869374 0.9996798041516 -79.82130724737 0.9996798041516 -79.82130724737 0.0251699627407 21.890617550843
8.684600000000000 0.0251682008781 -1.524168212691 0.9996798225815 -79.82227852528 0.9996798225815 -79.82227852528 0.0251692134934 21.890249701218
8.684700000000001 0.0251674500442 -1.525742382376 0.9996798410462 -79.82324988652 0.9996798410462 -79.82324988652 0.0251684628233 21.889882515769
8.684800000000001 0.0251666977823 -1.527317381471 0.9996798595461 -79.82422133136 0.9996798595461 -79.82422133136 0.0251677107256 21.889515996601
8.684900000000001 0.0251659440903 -1.528893210987 0.9996798780809 -79.82519285993 0.9996798780809 -79.82519285993 0.0251669571983 21.889150145104
8.685000000000000 0.0251651889638 -1.530469873854 0.9996798966510 -79.82616447250 0.9996798966510 -79.82616447250 0.0251662022367 21.888784963238
8.685100000000000 0.0251644323995 -1.532047371691 0.9996799152562 -79.82713616924 0.9996799152562 -79.82713616924 0.0251654458379 21.888420452807
8.685200000000000 0.0251636743933 -1.533625707116 0.9996799338966 -79.82810795041 0.9996799338966 -79.82810795041 0.0251646879975 21.888056615782
8.685300000000000 0.0251629149441 -1.535204881301 0.9996799525726 -79.82907981607 0.9996799525726 -79.82907981607 0.0251639287146 21.887693452423
8.685400000000001 0.0251621540435 -1.536784898711 0.9996799712841 -79.83005176671 0.9996799712841 -79.83005176671 0.0251631679807 21.887330967047
8.685500000000001 0.0251613916916 -1.538365759759 0.9996799900312 -79.83102380233 0.9996799900312 -79.83102380233 0.0251624057958 21.886969159580
8.685600000000001 0.0251606278844 -1.539947466075 0.9996800088137 -79.83199592316 0.9996800088137 -79.83199592316 0.0251616421561 21.886608032513
8.685700000000001 0.0251598626173 -1.541530021295 0.9996800276320 -79.83296812947 0.9996800276320 -79.83296812947 0.0251608770570 21.886247587278
8.685800000000000 0.0251590958873 -1.543113427191 0.9996800464863 -79.83394042145 0.9996800464863 -79.83394042145 0.0251601104953 21.885887825643
8.685900000000000 0.0251583276895 -1.544697686183 0.9996800653764 -79.83491279937 0.9996800653764 -79.83491279937 0.0251593424663 21.885528750180
8.686000000000000 0.0251575580219 -1.546282799911 0.9996800843026 -79.83588526336 0.9996800843026 -79.83588526336 0.0251585729679 21.885170361771
8.686100000000000 0.0251567868798 -1.547868771096 0.9996801032648 -79.83685781370 0.9996801032648 -79.83685781370 0.0251578019953 21.884812662776
8.686200000000001 0.0251560142595 -1.549455601995 0.9996801222632 -79.83783045059 0.9996801222632 -79.83783045059 0.0251570295451 21.884455654874
8.686300000000001 0.0251552401568 -1.551043295139 0.9996801412979 -79.83880317429 0.9996801412979 -79.83880317429 0.0251562556128 21.884099340239
8.686400000000001 0.0251544645706 -1.552631851366 0.9996801603689 -79.83977598486 0.9996801603689 -79.83977598486 0.0251554801975 21.883743719484
8.686500000000001 0.0251536874923 -1.554221275209 0.9996801794763 -79.84074888281 0.9996801794763 -79.84074888281 0.0251547032905 21.883388796954
8.686600000000000 0.0251529089231 -1.555811567054 0.9996801986204 -79.84172186807 0.9996801986204 -79.84172186807 0.0251539248930 21.883034571601
8.686700000000000 0.0251521288571 -1.557402729752 0.9996802178009 -79.84269494099 0.9996802178009 -79.84269494099 0.0251531449991 21.882681046813
8.686800000000000 0.0251513472890 -1.558994766237 0.9996802370181 -79.84366810186 0.9996802370181 -79.84366810186 0.0251523636037 21.882328225131
8.686900000000001 0.0251505642179 -1.560587678210 0.9996802562723 -79.84464135077 0.9996802562723 -79.84464135077 0.0251515807055 21.881976106444
8.687000000000001 0.0251497796388 -1.562181467625 0.9996802755633 -79.84561468798 0.9996802755633 -79.84561468798 0.0251507962999 21.881624693993
8.687100000000001 0.0251489935466 -1.563776138080 0.9996802948913 -79.84658811381 0.9996802948913 -79.84658811381 0.0251500103816 21.881273989626
8.687200000000001 0.0251482059389 -1.565371690653 0.9996803142563 -79.84756162839 0.9996803142563 -79.84756162839 0.0251492229482 21.880923995219
8.687300000000000 0.0251474168119 -1.566968128031 0.9996803336584 -79.84853523196 0.9996803336584 -79.84853523196 0.0251484339960 21.880574712128
8.687400000000000 0.0251466261605 -1.568565453267 0.9996803530979 -79.84950892480 0.9996803530979 -79.84950892480 0.0251476435198 21.880226142916
8.687500000000000 0.0251458339828 -1.570163667167 0.9996803725745 -79.85048270704 0.9996803725745 -79.85048270704 0.0251468515177 21.879878289062
8.687600000000000 0.0251450402734 -1.571762773790 0.9996803920888 -79.85145657897 0.9996803920888 -79.85145657897 0.0251460579844 21.879531152136
8.687700000000001 0.0251442450281 -1.573362774908 0.9996804116405 -79.85243054088 0.9996804116405 -79.85243054088 0.0251452629156 21.879184735223
8.687800000000001 0.0251434482437 -1.574963672503 0.9996804312298 -79.85340459292 0.9996804312298 -79.85340459292 0.0251444663082 21.878839039670
8.687900000000001 0.0251426499165 -1.576565469547 0.9996804508569 -79.85437873533 0.9996804508569 -79.85437873533 0.0251436681584 21.878494066859
8.688000000000001 0.0251418500431 -1.578168167495 0.9996804705217 -79.85535296830 0.9996804705217 -79.85535296830 0.0251428684628 21.878149818988
8.688100000000000 0.0251410486172 -1.579771770115 0.9996804902244 -79.85632729219 0.9996804902244 -79.85632729219 0.0251420672152 21.877806298973
8.688200000000000 0.0251402456364 -1.581376279081 0.9996805099651 -79.85730170717 0.9996805099651 -79.85730170717 0.0251412644132 21.877463508024
8.688300000000000 0.0251394410960 -1.582981697367 0.9996805297440 -79.85827621350 0.9996805297440 -79.85827621350 0.0251404600520 21.877121448320
8.688400000000000 0.0251386349938 -1.584588026176 0.9996805495609 -79.85925081130 0.9996805495609 -79.85925081130 0.0251396541294 21.876780121189
8.688500000000001 0.0251378273242 -1.586195268868 0.9996805694162 -79.86022550092 0.9996805694162 -79.86022550092 0.0251388466400 21.876439529215
8.688600000000001 0.0251370180839 -1.587803427264 0.9996805893096 -79.86120028254 0.9996805893096 -79.86120028254 0.0251380375803 21.876099674475
8.688700000000001 0.0251362072667 -1.589412505511 0.9996806092417 -79.86217515652 0.9996806092417 -79.86217515652 0.0251372269441 21.875760559257
8.688800000000001 0.0251353948721 -1.591022503929 0.9996806292122 -79.86315012291 0.9996806292122 -79.86315012291 0.0251364147310 21.875422184397
8.688900000000000 0.0251345808925 -1.592633426835 0.9996806492215 -79.86412518214 0.9996806492215 -79.86412518214 0.0251356009334 21.875084553368
8.689000000000000 0.0251337653271 -1.594245275272 0.9996806692695 -79.86510033427 0.9996806692695 -79.86510033427 0.0251347855503 21.874747666494
8.689100000000000 0.0251329481690 -1.595858052665 0.9996806893563 -79.86607557970 0.9996806893563 -79.86607557970 0.0251339685751 21.874411527610
8.689200000000001 0.0251321294158 -1.597471761058 0.9996807094821 -79.86705091856 0.9996807094821 -79.86705091856 0.0251331500052 21.874076137588
8.689300000000001 0.0251313090632 -1.599086402708 0.9996807296469 -79.86802635112 0.9996807296469 -79.86802635112 0.0251323298364 21.873741498784
8.689400000000001 0.0251304871058 -1.600701981253 0.9996807498508 -79.86900187769 0.9996807498508 -79.86900187769 0.0251315080632 21.873407613479
8.689500000000001 0.0251296635411 -1.602318497957 0.9996807700940 -79.86997749842 0.9996807700940 -79.86997749842 0.0251306846833 21.873074483221
8.689600000000000 0.0251288383631 -1.603935956260 0.9996807903764 -79.87095321366 0.9996807903764 -79.87095321366 0.0251298596905 21.872742111183
8.689700000000000 0.0251280115705 -1.605554357977 0.9996808106984 -79.87192902349 0.9996808106984 -79.87192902349 0.0251290330835 21.872410497282
8.689800000000000 0.0251271831559 -1.607173706542 0.9996808310598 -79.87290492834 0.9996808310598 -79.87290492834 0.0251282048550 21.872079645770
8.689900000000000 0.0251263531167 -1.608794003868 0.9996808514609 -79.87388092836 0.9996808514609 -79.87388092836 0.0251273750024 21.871749557859
8.690000000000001 0.0251255214485 -1.610415252655 0.9996808719017 -79.87485702382 0.9996808719017 -79.87485702382 0.0251265435213 21.871420235722
8.690100000000001 0.0251246881466 -1.612037455668 0.9996808923822 -79.87583321500 0.9996808923822 -79.87583321500 0.0251257104070 21.871091681771
8.690200000000001 0.0251238532063 -1.613660616077 0.9996809129028 -79.87680950216 0.9996809129028 -79.87680950216 0.0251248756547 21.870763897884
8.690300000000001 0.0251230166242 -1.615284735453 0.9996809334633 -79.87778588551 0.9996809334633 -79.87778588551 0.0251240392612 21.870436886436
8.690400000000000 0.0251221783959 -1.616909817022 0.9996809540640 -79.87876236531 0.9996809540640 -79.87876236531 0.0251232012219 21.870110649048
8.690500000000000 0.0251213385184 -1.618535862568 0.9996809747049 -79.87973894173 0.9996809747049 -79.87973894173 0.0251223615338 21.869785187385
8.690600000000000 0.0251204969851 -1.620162875628 0.9996809953860 -79.88071561516 0.9996809953860 -79.88071561516 0.0251215201906 21.869460504864
8.690700000000001 0.0251196537921 -1.621790858925 0.9996810161076 -79.88169238584 0.9996810161076 -79.88169238584 0.0251206771880 21.869136603363
8.690800000000001 0.0251188089340 -1.623419816013 0.9996810368700 -79.88266925408 0.9996810368700 -79.88266925408 0.0251198325208 21.868813484981
8.690900000000001 0.0251179624105 -1.625049746535 0.9996810576727 -79.88364621990 0.9996810576727 -79.88364621990 0.0251189861887 21.868491150977
8.691000000000001 0.0251171142142 -1.626680655476 0.9996810785163 -79.88462328372 0.9996810785163 -79.88462328372 0.0251181381844 21.868169604098
8.691100000000000 0.0251162643402 -1.628312545585 0.9996810994007 -79.88560044585 0.9996810994007 -79.88560044585 0.0251172885028 21.867848847111
8.691200000000000 0.0251154127855 -1.629945418656 0.9996811203260 -79.88657770646 0.9996811203260 -79.88657770646 0.0251164371410 21.867528881639
8.691300000000000 0.0251145595448 -1.631579278027 0.9996811412924 -79.88755506586 0.9996811412924 -79.88755506586 0.0251155840936 21.867209710157
8.691400000000000 0.0251137046136 -1.633214126163 0.9996811622999 -79.88853252431 0.9996811622999 -79.88853252431 0.0251147293564 21.866891335058
8.691500000000001 0.0251128479893 -1.634849965428 0.9996811833487 -79.88951008198 0.9996811833487 -79.88951008198 0.0251138729265 21.866573757213
8.691600000000001 0.0251119896633 -1.636486800123 0.9996812044389 -79.89048773935 0.9996812044389 -79.89048773935 0.0251130147953 21.866256981397
8.691700000000001 0.0251111296353 -1.638124630936 0.9996812255704 -79.89146549646 0.9996812255704 -79.89146549646 0.0251121549628 21.865941007589
8.691800000000001 0.0251102678992 -1.639763461707 0.9996812467436 -79.89244335366 0.9996812467436 -79.89244335366 0.0251112934226 21.865625838636
8.691900000000000 0.0251094044497 -1.641403295333 0.9996812679585 -79.89342131126 0.9996812679585 -79.89342131126 0.0251104301695 21.865311477401
8.692000000000000 0.0251085392830 -1.643044134191 0.9996812892150 -79.89439936949 0.9996812892150 -79.89439936949 0.0251095651997 21.864997925857
8.692100000000000 0.0251076723951 -1.644685981046 0.9996813105136 -79.89537752858 0.9996813105136 -79.89537752858 0.0251086985092 21.864685185640
8.692200000000000 0.0251068037806 -1.646328839021 0.9996813318541 -79.89635578885 0.9996813318541 -79.89635578885 0.0251078300926 21.864373259645
8.692300000000001 0.0251059334333 -1.647972711727 0.9996813532368 -79.89733415066 0.9996813532368 -79.89733415066 0.0251069599439 21.864062150824
8.692400000000001 0.0251050613525 -1.649617600107 0.9996813746617 -79.89831261406 0.9996813746617 -79.89831261406 0.0251060880620 21.863751859612
8.692500000000001 0.0251041875305 -1.651263508227 0.9996813961289 -79.89929117950 0.9996813961289 -79.89929117950 0.0251052144394 21.863442390084
8.692600000000001 0.0251033119635 -1.652910438682 0.9996814176385 -79.90026984720 0.9996814176385 -79.90026984720 0.0251043390724 21.863133743803
8.692700000000000 0.0251024346477 -1.654558393921 0.9996814391906 -79.90124861739 0.9996814391906 -79.90124861739 0.0251034619572 21.862825922859
8.692800000000000 0.0251015555764 -1.656207377826 0.9996814607854 -79.90222749046 0.9996814607854 -79.90222749046 0.0251025830868 21.862518930535
8.692900000000000 0.0251006747455 -1.657857392936 0.9996814824230 -79.90320646665 0.9996814824230 -79.90320646665 0.0251017024575 21.862212768797
8.693000000000001 0.0250997921525 -1.659508441211 0.9996815041035 -79.90418554611 0.9996815041035 -79.90418554611 0.0251008200665 21.861907438901
8.693100000000001 0.0250989077903 -1.661160526504 0.9996815258269 -79.90516472926 0.9996815258269 -79.90516472926 0.0250999359070 21.861602944382
8.693200000000001 0.0250980216542 -1.662813651915 0.9996815475935 -79.90614401638 0.9996815475935 -79.90614401638 0.0250990499739 21.861299287612
8.693300000000001 0.0250971337415 -1.664467818909 0.9996815694031 -79.90712340761 0.9996815694031 -79.90712340761 0.0250981622649 21.860996470152
8.693400000000000 0.0250962440446 -1.666123032441 0.9996815912563 -79.90810290342 0.9996815912563 -79.90810290342 0.0250972727722 21.860694495334
8.693500000000000 0.0250953525598 -1.667779294222 0.9996816131527 -79.90908250400 0.9996816131527 -79.90908250400 0.0250963814922 21.860393365481
8.693600000000000 0.0250944592828 -1.669436607637 0.9996816350927 -79.91006220964 0.9996816350927 -79.91006220964 0.0250954884203 21.860093082381
8.693700000000000 0.0250935642093 -1.671094974735 0.9996816570763 -79.91104202057 0.9996816570763 -79.91104202057 0.0250945935527 21.859793648500
8.693800000000001 0.0250926673330 -1.672754399852 0.9996816791038 -79.91202193716 0.9996816791038 -79.91202193716 0.0250936968827 21.859495066545
8.693900000000001 0.0250917686491 -1.674414885413 0.9996817011751 -79.91300195970 0.9996817011751 -79.91300195970 0.0250927984057 21.859197339318
8.694000000000001 0.0250908681535 -1.676076434278 0.9996817232905 -79.91398208843 0.9996817232905 -79.91398208843 0.0250918981175 21.858900468714
8.694100000000001 0.0250899658399 -1.677739050246 0.9996817454499 -79.91496232372 0.9996817454499 -79.91496232372 0.0250909960118 21.858604457735
8.694200000000000 0.0250890617065 -1.679402734483 0.9996817676536 -79.91594266568 0.9996817676536 -79.91594266568 0.0250900920869 21.858309307535
8.694300000000000 0.0250881557446 -1.681067492287 0.9996817899017 -79.91692311481 0.9996817899017 -79.91692311481 0.0250891863340 21.858015022251
8.694400000000000 0.0250872479512 -1.682733325004 0.9996818121940 -79.91790367130 0.9996818121940 -79.91790367130 0.0250882787502 21.857721603837
8.694500000000000 0.0250863383210 -1.684400236916 0.9996818345312 -79.91888433545 0.9996818345312 -79.91888433545 0.0250873693302 21.857429054068
8.694600000000001 0.0250854268493 -1.686068230184 0.9996818569129 -79.91986510755 0.9996818569129 -79.91986510755 0.0250864580691 21.857137375999
8.694700000000001 0.0250845135301 -1.687737308528 0.9996818793395 -79.92084598794 0.9996818793395 -79.92084598794 0.0250855449612 21.856846572424
8.694800000000001 0.0250835983604 -1.689407473998 0.9996819018109 -79.92182697681 0.9996819018109 -79.92182697681 0.0250846300033 21.856556645012
8.694900000000001 0.0250826813320 -1.691078731337 0.9996819243274 -79.92280807463 0.9996819243274 -79.92280807463 0.0250837131873 21.856267597639
8.695000000000000 0.0250817624418 -1.692751082847 0.9996819468892 -79.92378928159 0.9996819468892 -79.92378928159 0.0250827945100 21.855979431782
8.695100000000000 0.0250808416844 -1.694424531746 0.9996819694962 -79.92477059801 0.9996819694962 -79.92477059801 0.0250818739660 21.855692150235
8.695200000000000 0.0250799190561 -1.696099080042 0.9996819921486 -79.92575202410 0.9996819921486 -79.92575202410 0.0250809515518 21.855405755141
8.695300000000001 0.0250789945485 -1.697774733174 0.9996820148466 -79.92673356036 0.9996820148466 -79.92673356036 0.0250800272587 21.855120250259
8.695400000000001 0.0250780681596 -1.699451492221 0.9996820375901 -79.92771520690 0.9996820375901 -79.92771520690 0.0250791010850 21.854835636870
8.695500000000001 0.0250771398803 -1.701129362258 0.9996820603793 -79.92869696426 0.9996820603793 -79.92869696426 0.0250781730216 21.854551919633
8.695600000000001 0.0250762097107 -1.702808344346 0.9996820832145 -79.92967883244 0.9996820832145 -79.92967883244 0.0250772430682 21.854269098161
8.695700000000000 0.0250752776416 -1.704488443843 0.9996821060959 -79.93066081198 0.9996821060959 -79.93066081198 0.0250763112160 21.853987176848
8.695800000000000 0.0250743436698 -1.706169662025 0.9996821290232 -79.93164290306 0.9996821290232 -79.93164290306 0.0250753774617 21.853706158080
8.695900000000000 0.0250734077885 -1.707852003499 0.9996821519968 -79.93262510610 0.9996821519968 -79.93262510610 0.0250744417983 21.853426044872
8.696000000000000 0.0250724699929 -1.709535471402 0.9996821750169 -79.93360742135 0.9996821750169 -79.93360742135 0.0250735042213 21.853146839338
8.696100000000001 0.0250715302784 -1.711220068350 0.9996821980834 -79.93458984911 0.9996821980834 -79.93458984911 0.0250725647261 21.852868544047
8.696200000000001 0.0250705886381 -1.712905798185 0.9996822211964 -79.93557238977 0.9996822211964 -79.93557238977 0.0250716233056 21.852591162788
8.696300000000001 0.0250696450687 -1.714592663892 0.9996822443563 -79.93655504353 0.9996822443563 -79.93655504353 0.0250706799565 21.852314696543
8.696400000000001 0.0250686995633 -1.716280668607 0.9996822675630 -79.93753781080 0.9996822675630 -79.93753781080 0.0250697346721 21.852039149492
8.696500000000000 0.0250677521189 -1.717969815592 0.9996822908168 -79.93852069175 0.9996822908168 -79.93852069175 0.0250687874492 21.851764522294
8.696600000000000 0.0250668027263 -1.719660109196 0.9996823141177 -79.93950368693 0.9996823141177 -79.93950368693 0.0250678382787 21.851490820272
8.696700000000000 0.0250658513817 -1.721351551929 0.9996823374657 -79.94048679655 0.9996823374657 -79.94048679655 0.0250668871568 21.851218045274
8.696800000000001 0.0250648980817 -1.723044146857 0.9996823608613 -79.94147002082 0.9996823608613 -79.94147002082 0.0250659340802 21.850946198341
8.696900000000001 0.0250639428184 -1.724737897958 0.9996823843043 -79.94245336021 0.9996823843043 -79.94245336021 0.0250649790407 21.850675284154
8.697000000000001 0.0250629855869 -1.726432808052 0.9996824077949 -79.94343681499 0.9996824077949 -79.94343681499 0.0250640220338 21.850405305203
8.697100000000001 0.0250620263820 -1.728128881422 0.9996824313334 -79.94442038548 0.9996824313334 -79.94442038548 0.0250630630540 21.850136263331
8.697200000000000 0.0250610651975 -1.729826120693 0.9996824549196 -79.94540407205 0.9996824549196 -79.94540407205 0.0250621020952 21.849868162600
8.697300000000000 0.0250601020290 -1.731524529228 0.9996824785538 -79.94638787495 0.9996824785538 -79.94638787495 0.0250611391530 21.849601004711
8.697400000000000 0.0250591368694 -1.733224111436 0.9996825022364 -79.94737179459 0.9996825022364 -79.94737179459 0.0250601742204 21.849334792979
8.697500000000000 0.0250581697147 -1.734924869951 0.9996825259672 -79.94835583123 0.9996825259672 -79.94835583123 0.0250592072932 21.849069529662
8.697600000000001 0.0250572005590 -1.736626807406 0.9996825497462 -79.94933998519 0.9996825497462 -79.94933998519 0.0250582383657 21.848805218415
8.697700000000001 0.0250562293953 -1.738329929181 0.9996825735739 -79.95032425690 0.9996825735739 -79.95032425690 0.0250572674307 21.848541861697
8.697800000000001 0.0250552562194 -1.740034237530 0.9996825974503 -79.95130864660 0.9996825974503 -79.95130864660 0.0250562944843 21.848279461997
8.697900000000001 0.0250542810258 -1.741739735558 0.9996826213754 -79.95229315461 0.9996826213754 -79.95229315461 0.0250553195207 21.848018022533
8.698000000000000 0.0250533038071 -1.743446428444 0.9996826453495 -79.95327778138 0.9996826453495 -79.95327778138 0.0250543425326 21.847757546179
8.698100000000000 0.0250523245578 -1.745154319009 0.9996826693727 -79.95426252722 0.9996826693727 -79.95426252722 0.0250533635145 21.847498036256
8.698200000000000 0.0250513432727 -1.746863410545 0.9996826934451 -79.95524739245 0.9996826934451 -79.95524739245 0.0250523824613 21.847239495371
8.698300000000000 0.0250503599466 -1.748573706772 0.9996827175670 -79.95623237736 0.9996827175670 -79.95623237736 0.0250513993677 21.846981925730
8.698400000000001 0.0250493745738 -1.750285210186 0.9996827417380 -79.95721748229 0.9996827417380 -79.95721748229 0.0250504142281 21.846725331176
8.698500000000001 0.0250483871494 -1.751997924946 0.9996827659587 -79.95820270754 0.9996827659587 -79.95820270754 0.0250494270374 21.846469713230
8.698600000000001 0.0250473976650 -1.753711855931 0.9996827902294 -79.95918805359 0.9996827902294 -79.95918805359 0.0250484377873 21.846215076103
8.698700000000001 0.0250464061153 -1.755427005883 0.9996828145498 -79.96017352076 0.9996828145498 -79.96017352076 0.0250474464727 21.845961422931
8.698800000000000 0.0250454124950 -1.757143378146 0.9996828389201 -79.96115910936 0.9996828389201 -79.96115910936 0.0250464530881 21.845708756578
8.698900000000000 0.0250444167993 -1.758860976497 0.9996828633408 -79.96214481967 0.9996828633408 -79.96214481967 0.0250454576287 21.845457078642
8.699000000000000 0.0250434190204 -1.760579804837 0.9996828878116 -79.96313065215 0.9996828878116 -79.96313065215 0.0250444600868 21.845206393864
8.699100000000001 0.0250424191537 -1.762299866768 0.9996829123330 -79.96411660708 0.9996829123330 -79.96411660708 0.0250434604576 21.844956703915
8.699200000000001 0.0250414171916 -1.764021166178 0.9996829369048 -79.96510268489 0.9996829369048 -79.96510268489 0.0250424587338 21.844708013128
8.699300000000001 0.0250404131296 -1.765743706463 0.9996829615274 -79.96608888587 0.9996829615274 -79.96608888587 0.0250414549106 21.844460323559
8.699400000000001 0.0250394069629 -1.767467490414 0.9996829862007 -79.96707521028 0.9996829862007 -79.96707521028 0.0250404489835 21.844213637730
8.699500000000000 0.0250383986813 -1.769192524422 0.9996830109252 -79.96806165872 0.9996830109252 -79.96806165872 0.0250394409421 21.843967960361
8.699600000000000 0.0250373882826 -1.770918809700 0.9996830357008 -79.96904823134 0.9996830357008 -79.96904823134 0.0250384307842 21.843723293115
8.699700000000000 0.0250363757581 -1.772646351715 0.9996830605277 -79.97003492863 0.9996830605277 -79.97003492863 0.0250374185012 21.843479640024
8.699800000000000 0.0250353611048 -1.774375151948 0.9996830854057 -79.97102175078 0.9996830854057 -79.97102175078 0.0250364040902 21.843237003148
8.699900000000001 0.0250343443120 -1.776105217549 0.9996831103356 -79.97200869842 0.9996831103356 -79.97200869842 0.0250353875403 21.842995387103
8.700000000000001 0.0250333253798 -1.777836548486 0.9996831353170 -79.97299577154 0.9996831353170 -79.97299577154 0.0250343688515 21.842754792423