! Sonnet Data File
! From: emgraph Version : 16.52
! From Project: 171117_Xmon_fullysym
! Data is De-embedded 
! Data File Written: 11/26/2017 21:44:46
!< HDATE 11/26/2017 17:24:49
!< MDATE 11/26/2017 17:24:49
!< PARAMS
!< Lj = 11.0
!< Gap = 1.0
!< Pwid = 2000.0
!< Airgap = 6.0
!< Width = 10.0
!< Lj1 = 9.6
!< END PARAMS
# GHZ S MA R 50.90000
8.600000000000001 0.0255780387563 -0.330061469480 0.9996695707138 -79.01370375942 0.9996695707137 -79.01370375970 0.0255789718693 22.312632848803
!< P1 F=8.6 Eeff=(6.44845572 -2.9799e-5) Z0=(50.9087207 1.17006e-4) R=0.0 C=0.0 
!< P2 F=8.6 Eeff=(6.44845572 -2.9799e-5) Z0=(50.9087207 1.17006e-4) R=0.0 C=0.0 
8.600200000000001 0.0255777174015 -0.332544713296 0.9996695787728 -79.01557759998 0.9996695787728 -79.01557759998 0.0255786506301 22.311369056340
8.600400000000000 0.0255773948573 -0.335028650120 0.9996695868367 -79.01745151146 0.9996695868367 -79.01745151146 0.0255783281813 22.310105775383
8.600600000000000 0.0255770710888 -0.337513252654 0.9996695949316 -79.01932549372 0.9996695949316 -79.01932549372 0.0255780045085 22.308843020550
8.600800000000001 0.0255767460937 -0.339998522166 0.9996696030574 -79.02119954688 0.9996696030574 -79.02119954688 0.0255776796091 22.307580793070
8.601000000000001 0.0255764198679 -0.342484460994 0.9996696112143 -79.02307367120 0.9996696112143 -79.02307367120 0.0255773534794 22.306319094611
8.601200000000000 0.0255760924086 -0.344971070697 0.9996696194024 -79.02494786683 0.9996696194024 -79.02494786683 0.0255770261162 22.305057926564
8.601400000000000 0.0255757637115 -0.347458353548 0.9996696276216 -79.02682213403 0.9996696276216 -79.02682213403 0.0255766975156 22.303797290856
8.601600000000001 0.0255754337730 -0.349946311779 0.9996696358722 -79.02869647300 0.9996696358722 -79.02869647300 0.0255763676737 22.302537188979
8.601800000000001 0.0255751025902 -0.352434946925 0.9996696441542 -79.03057088392 0.9996696441542 -79.03057088392 0.0255760365879 22.301277622233
8.602000000000000 0.0255747701585 -0.354924261611 0.9996696524676 -79.03244536707 0.9996696524676 -79.03244536707 0.0255757042532 22.300018592790
8.602200000000000 0.0255744364758 -0.357414257018 0.9996696608127 -79.03431992255 0.9996696608127 -79.03431992255 0.0255753706677 22.298760101561
8.602400000000001 0.0255741015364 -0.359904936329 0.9996696691895 -79.03619455071 0.9996696691895 -79.03619455071 0.0255750358258 22.297502150947
8.602600000000001 0.0255737653385 -0.362396300551 0.9996696775980 -79.03806925165 0.9996696775980 -79.03806925165 0.0255746997256 22.296244741902
8.602800000000000 0.0255734278776 -0.364888352274 0.9996696860384 -79.03994402564 0.9996696860384 -79.03994402564 0.0255743623626 22.294987876402
8.603000000000000 0.0255730891505 -0.367381093268 0.9996696945107 -79.04181887286 0.9996696945107 -79.04181887286 0.0255740237336 22.293731555850
8.603200000000001 0.0255727491528 -0.369874525994 0.9996697030151 -79.04369379357 0.9996697030151 -79.04369379357 0.0255736838342 22.292475782213
8.603400000000001 0.0255724078813 -0.372368652125 0.9996697115516 -79.04556878796 0.9996697115516 -79.04556878796 0.0255733426612 22.291220557080
8.603600000000000 0.0255720653324 -0.374863473872 0.9996697201203 -79.04744385625 0.9996697201203 -79.04744385625 0.0255730002111 22.289965881879
8.603800000000000 0.0255717215017 -0.377358993726 0.9996697287213 -79.04931899868 0.9996697287213 -79.04931899868 0.0255726564794 22.288711758492
8.604000000000001 0.0255713763863 -0.379855213176 0.9996697373548 -79.05119421544 0.9996697373548 -79.05119421544 0.0255723114632 22.287458188559
8.604200000000001 0.0255710299825 -0.382352134412 0.9996697460207 -79.05306950672 0.9996697460207 -79.05306950672 0.0255719651588 22.286205173433
8.604400000000000 0.0255706822852 -0.384849760279 0.9996697547193 -79.05494487285 0.9996697547193 -79.05494487285 0.0255716175612 22.284952715474
8.604600000000001 0.0255703332926 -0.387348091707 0.9996697634505 -79.05682031392 0.9996697634505 -79.05682031392 0.0255712686684 22.283700815647
8.604800000000001 0.0255699829990 -0.389847132133 0.9996697722145 -79.05869583027 0.9996697722145 -79.05869583027 0.0255709184749 22.282449476222
8.605000000000000 0.0255696314020 -0.392346882708 0.9996697810115 -79.06057142203 0.9996697810115 -79.06057142203 0.0255705669782 22.281198698454
8.605200000000000 0.0255692784969 -0.394847346059 0.9996697898413 -79.06244708949 0.9996697898413 -79.06244708949 0.0255702141736 22.279948484508
8.605400000000001 0.0255689242805 -0.397348524135 0.9996697987042 -79.06432283283 0.9996697987042 -79.06432283283 0.0255698600579 22.278698835707
8.605600000000001 0.0255685687480 -0.399850419597 0.9996698076004 -79.06619865234 0.9996698076004 -79.06619865234 0.0255695046263 22.277449754141
8.605800000000000 0.0255682118970 -0.402353033677 0.9996698165297 -79.06807454814 0.9996698165297 -79.06807454814 0.0255691478765 22.276201241052
8.606000000000000 0.0255678537217 -0.404856369767 0.9996698254925 -79.06995052059 0.9996698254925 -79.06995052059 0.0255687898026 22.274953298881
8.606200000000001 0.0255674942196 -0.407360429241 0.9996698344887 -79.07182656983 0.9996698344887 -79.07182656983 0.0255684304022 22.273705928825
8.606400000000001 0.0255671333866 -0.409865214428 0.9996698435184 -79.07370269611 0.9996698435184 -79.07370269611 0.0255680696710 22.272459132764
8.606600000000000 0.0255667712185 -0.412370727714 0.9996698525818 -79.07557889966 0.9996698525818 -79.07557889966 0.0255677076050 22.271212912468
8.606800000000000 0.0255664077112 -0.414876971281 0.9996698616789 -79.07745518074 0.9996698616789 -79.07745518074 0.0255673442000 22.269967269936
8.607000000000001 0.0255660428610 -0.417383947362 0.9996698708099 -79.07933153955 0.9996698708099 -79.07933153955 0.0255669794523 22.268722206717
8.607200000000001 0.0255656766638 -0.419891658233 0.9996698799749 -79.08120797634 0.9996698799749 -79.08120797634 0.0255666133579 22.267477724573
8.607400000000000 0.0255653091159 -0.422400105969 0.9996698891738 -79.08308449132 0.9996698891738 -79.08308449132 0.0255662459130 22.266233825376
8.607600000000000 0.0255649402129 -0.424909292982 0.9996698984069 -79.08496108476 0.9996698984069 -79.08496108476 0.0255658771132 22.264990510950
8.607800000000001 0.0255645699509 -0.427419221649 0.9996699076743 -79.08683775688 0.9996699076743 -79.08683775688 0.0255655069547 22.263747782999
8.608000000000001 0.0255641983254 -0.429929894286 0.9996699169760 -79.08871450794 0.9996699169760 -79.08871450794 0.0255651354329 22.262505643667
8.608200000000000 0.0255638253332 -0.432441312879 0.9996699263122 -79.09059133814 0.9996699263122 -79.09059133814 0.0255647625446 22.261264094345
8.608400000000001 0.0255634509697 -0.434953479861 0.9996699356829 -79.09246824774 0.9996699356829 -79.09246824774 0.0255643882853 22.260023137120
8.608600000000001 0.0255630752309 -0.437466397678 0.9996699450883 -79.09434523698 0.9996699450883 -79.09434523698 0.0255640126509 22.258782773647
8.608800000000000 0.0255626981123 -0.439980068701 0.9996699545284 -79.09622230613 0.9996699545284 -79.09622230613 0.0255636356369 22.257543006170
8.609000000000000 0.0255623196104 -0.442494495030 0.9996699640033 -79.09809945538 0.9996699640033 -79.09809945538 0.0255632572399 22.256303836146
8.609200000000001 0.0255619397207 -0.445009679144 0.9996699735133 -79.09997668501 0.9996699735133 -79.09997668501 0.0255628774553 22.255065265497
8.609400000000001 0.0255615584388 -0.447525623589 0.9996699830583 -79.10185399527 0.9996699830583 -79.10185399527 0.0255624962787 22.253827296307
8.609600000000000 0.0255611757613 -0.450042330088 0.9996699926384 -79.10373138636 0.9996699926384 -79.10373138636 0.0255621137068 22.252589930284
8.609800000000000 0.0255607916828 -0.452559801877 0.9996700022538 -79.10560885859 0.9996700022538 -79.10560885859 0.0255617297342 22.251353169480
8.610000000000001 0.0255604062002 -0.455078040643 0.9996700119046 -79.10748641216 0.9996700119046 -79.10748641216 0.0255613443576 22.250117015610
8.610200000000001 0.0255600193090 -0.457597049026 0.9996700215909 -79.10936404731 0.9996700215909 -79.10936404731 0.0255609575728 22.248881470400
8.610400000000000 0.0255596310045 -0.460116829485 0.9996700313127 -79.11124176434 0.9996700313127 -79.11124176434 0.0255605693748 22.247646536256
8.610600000000000 0.0255592412827 -0.462637384473 0.9996700410703 -79.11311956348 0.9996700410703 -79.11311956348 0.0255601797598 22.246412214796
8.610800000000001 0.0255588501391 -0.465158716405 0.9996700508636 -79.11499744498 0.9996700508636 -79.11499744498 0.0255597887232 22.245178508072
8.611000000000001 0.0255584575700 -0.467680827410 0.9996700606929 -79.11687540908 0.9996700606929 -79.11687540908 0.0255593962614 22.243945417831
8.611200000000000 0.0255580635700 -0.470203720578 0.9996700705581 -79.11875345607 0.9996700705581 -79.11875345607 0.0255590023689 22.242712946334
8.611400000000000 0.0255576681359 -0.472727397648 0.9996700804595 -79.12063158615 0.9996700804595 -79.12063158615 0.0255586070427 22.241481095133
8.611600000000001 0.0255572712631 -0.475251861242 0.9996700903971 -79.12250979960 0.9996700903971 -79.12250979960 0.0255582102779 22.240249866392
8.611800000000001 0.0255568729465 -0.477777114357 0.9996701003710 -79.12438809671 0.9996701003710 -79.12438809671 0.0255578120695 22.239019262162
8.612000000000000 0.0255564731820 -0.480303159060 0.9996701103814 -79.12626647772 0.9996701103814 -79.12626647772 0.0255574124136 22.237789284489
8.612200000000001 0.0255560719653 -0.482829997915 0.9996701204283 -79.12814494288 0.9996701204283 -79.12814494288 0.0255570113057 22.236559935275
8.612400000000001 0.0255556692919 -0.485357633557 0.9996701305119 -79.13002349246 0.9996701305119 -79.13002349246 0.0255566087413 22.235331216407
8.612600000000000 0.0255552651580 -0.487886068030 0.9996701406323 -79.13190212668 0.9996701406323 -79.13190212668 0.0255562047167 22.234103129773
8.612800000000000 0.0255548595580 -0.490415304492 0.9996701507895 -79.13378084587 0.9996701507895 -79.13378084587 0.0255557992263 22.232875677796
8.613000000000001 0.0255544524887 -0.492945344860 0.9996701609838 -79.13565965023 0.9996701609838 -79.13565965023 0.0255553922667 22.231648861981
8.613200000000001 0.0255540439440 -0.495476192433 0.9996701712151 -79.13753854009 0.9996701712151 -79.13753854009 0.0255549838321 22.230422684909
8.613400000000000 0.0255536339203 -0.498007849411 0.9996701814837 -79.13941751569 0.9996701814837 -79.13941751569 0.0255545739187 22.229197148362
8.613600000000000 0.0255532224133 -0.500540317990 0.9996701917896 -79.14129657726 0.9996701917896 -79.14129657726 0.0255541625223 22.227972254298
8.613800000000001 0.0255528094180 -0.503073601249 0.9996702021329 -79.14317572511 0.9996702021329 -79.14317572511 0.0255537496377 22.226748004937
8.614000000000001 0.0255523949301 -0.505607701507 0.9996702125138 -79.14505495948 0.9996702125138 -79.14505495948 0.0255533352609 22.225524402118
8.614200000000000 0.0255519789445 -0.508142621665 0.9996702229324 -79.14693428068 0.9996702229324 -79.14693428068 0.0255529193867 22.224301448138
8.614400000000000 0.0255515614565 -0.510678364247 0.9996702333888 -79.14881368898 0.9996702333888 -79.14881368898 0.0255525020103 22.223079145291
8.614600000000001 0.0255511424619 -0.513214931906 0.9996702438831 -79.15069318463 0.9996702438831 -79.15069318463 0.0255520831275 22.221857495314
8.614800000000001 0.0255507219564 -0.515752326923 0.9996702544154 -79.15257276788 0.9996702544154 -79.15257276788 0.0255516627342 22.220636500156
8.615000000000000 0.0255502999342 -0.518290552500 0.9996702649858 -79.15445243907 0.9996702649858 -79.15445243907 0.0255512408244 22.219416162486
8.615200000000000 0.0255498763921 -0.520829610550 0.9996702755945 -79.15633219839 0.9996702755945 -79.15633219839 0.0255508173950 22.218196483753
8.615400000000001 0.0255494513238 -0.523369504684 0.9996702862415 -79.15821204621 0.9996702862415 -79.15821204621 0.0255503924396 22.216977466709
8.615600000000001 0.0255490247252 -0.525910237121 0.9996702969271 -79.16009198276 0.9996702969271 -79.16009198276 0.0255499659542 22.215759113258
8.615800000000000 0.0255485965918 -0.528451810401 0.9996703076512 -79.16197200832 0.9996703076512 -79.16197200832 0.0255495379342 22.214541425481
8.616000000000000 0.0255481669185 -0.530994227453 0.9996703184140 -79.16385212319 0.9996703184140 -79.16385212319 0.0255491083747 22.213324405634
8.616200000000001 0.0255477357003 -0.533537491125 0.9996703292157 -79.16573232765 0.9996703292157 -79.16573232765 0.0255486772705 22.212108055899
8.616400000000001 0.0255473029337 -0.536081603478 0.9996703400564 -79.16761262191 0.9996703400564 -79.16761262191 0.0255482446182 22.210892377971
8.616600000000000 0.0255468686114 -0.538626568413 0.9996703509361 -79.16949300641 0.9996703509361 -79.16949300641 0.0255478104104 22.209677375136
8.616800000000001 0.0255464327309 -0.541172387534 0.9996703618550 -79.17137348128 0.9996703618550 -79.17137348128 0.0255473746447 22.208463048497
8.617000000000001 0.0255459952859 -0.543719064370 0.9996703728133 -79.17325404690 0.9996703728133 -79.17325404690 0.0255469373149 22.207249400777
8.617200000000000 0.0255455562722 -0.546266601458 0.9996703838110 -79.17513470352 0.9996703838110 -79.17513470352 0.0255464984165 22.206036433985
8.617400000000000 0.0255451156844 -0.548815001588 0.9996703948483 -79.17701545144 0.9996703948483 -79.17701545144 0.0255460579443 22.204824150512
8.617600000000001 0.0255446735178 -0.551364267359 0.9996704059252 -79.17889629095 0.9996704059252 -79.17889629095 0.0255456158937 22.203612552665
8.617800000000001 0.0255442297671 -0.553914402102 0.9996704170419 -79.18077722237 0.9996704170419 -79.18077722237 0.0255451722592 22.202401642592
8.618000000000000 0.0255437844275 -0.556465408472 0.9996704281987 -79.18265824596 0.9996704281987 -79.18265824596 0.0255447270360 22.201191422510
8.618200000000000 0.0255433374945 -0.559017288689 0.9996704393954 -79.18453936199 0.9996704393954 -79.18453936199 0.0255442802199 22.199981894618
8.618400000000001 0.0255428889624 -0.561570046291 0.9996704506323 -79.18642057081 0.9996704506323 -79.18642057081 0.0255438318048 22.198773061407
8.618600000000001 0.0255424388256 -0.564123684481 0.9996704619096 -79.18830187273 0.9996704619096 -79.18830187273 0.0255433817854 22.197564925162
8.618800000000000 0.0255419870806 -0.566678205149 0.9996704732272 -79.19018326798 0.9996704732272 -79.19018326798 0.0255429301579 22.196357487834
8.619000000000000 0.0255415337209 -0.569233611884 0.9996704845854 -79.19206475691 0.9996704845854 -79.19206475691 0.0255424769162 22.195150752173
8.619200000000001 0.0255410787420 -0.571789907392 0.9996704959844 -79.19394633980 0.9996704959843 -79.19394633980 0.0255420220555 22.193944720149
8.619400000000001 0.0255406221393 -0.574347094266 0.9996705074241 -79.19582801693 0.9996705074241 -79.19582801693 0.0255415655712 22.192739394065
8.619600000000000 0.0255401639067 -0.576905175836 0.9996705189047 -79.19770978864 0.9996705189047 -79.19770978864 0.0255411074574 22.191534776513
8.619800000000000 0.0255397040387 -0.579464155417 0.9996705304265 -79.19959165526 0.9996705304265 -79.19959165526 0.0255406477084 22.190330869917
8.620000000000001 0.0255392425302 -0.582024035692 0.9996705419894 -79.20147361709 0.9996705419894 -79.20147361709 0.0255401863193 22.189127676692
8.620200000000001 0.0255387793770 -0.584584819263 0.9996705535937 -79.20335567438 0.9996705535937 -79.20335567438 0.0255397232858 22.187925198637
8.620400000000000 0.0255383145737 -0.587146509015 0.9996705652394 -79.20523782745 0.9996705652394 -79.20523782745 0.0255392586024 22.186723438466
8.620600000000001 0.0255378481137 -0.589709108768 0.9996705769267 -79.20712007667 0.9996705769267 -79.20712007667 0.0255387922626 22.185522398861
8.620800000000001 0.0255373799931 -0.592272620701 0.9996705886557 -79.20900242229 0.9996705886557 -79.20900242229 0.0255383242625 22.184322081788
8.621000000000000 0.0255369102056 -0.594837048385 0.9996706004266 -79.21088486466 0.9996706004266 -79.21088486466 0.0255378545958 22.183122489990
8.621200000000000 0.0255364387467 -0.597402394509 0.9996706122395 -79.21276740406 0.9996706122395 -79.21276740406 0.0255373832581 22.181923625403
8.621400000000001 0.0255359656104 -0.599968662286 0.9996706240944 -79.21465004084 0.9996706240944 -79.21465004084 0.0255369102432 22.180725491066
8.621600000000001 0.0255354907910 -0.602535855104 0.9996706359916 -79.21653277533 0.9996706359916 -79.21653277533 0.0255364355455 22.179528089147
8.621800000000000 0.0255350142833 -0.605103975831 0.9996706479313 -79.21841560784 0.9996706479313 -79.21841560784 0.0255359591598 22.178331422319
8.622000000000000 0.0255345360830 -0.607673026972 0.9996706599134 -79.22029853862 0.9996706599134 -79.22029853862 0.0255354810818 22.177135492409
8.622200000000001 0.0255340561829 -0.610243012481 0.9996706719382 -79.22218156808 0.9996706719382 -79.22218156808 0.0255350013044 22.175940302681
8.622400000000001 0.0255335745788 -0.612813934886 0.9996706840057 -79.22406469649 0.9996706840057 -79.22406469649 0.0255345198232 22.174745855095
8.622600000000000 0.0255330912641 -0.615385797968 0.9996706961162 -79.22594792423 0.9996706961162 -79.22594792423 0.0255340366318 22.173552152431
8.622800000000000 0.0255326062342 -0.617958604187 0.9996707082697 -79.22783125156 0.9996707082697 -79.22783125156 0.0255335517254 22.172359197162
8.623000000000001 0.0255321194826 -0.620532357405 0.9996707204665 -79.22971467887 0.9996707204665 -79.22971467887 0.0255330650976 22.171166991775
8.623200000000001 0.0255316310048 -0.623107059895 0.9996707327066 -79.23159820642 0.9996707327066 -79.23159820642 0.0255325767440 22.169975538768
8.623400000000000 0.0255311407940 -0.625682715828 0.9996707449901 -79.23348183462 0.9996707449901 -79.23348183462 0.0255320866578 22.168784840807
8.623600000000000 0.0255306488459 -0.628259327614 0.9996707573173 -79.23536556371 0.9996707573173 -79.23536556371 0.0255315948344 22.167594900121
8.623800000000001 0.0255301551532 -0.630836899290 0.9996707696883 -79.23724939412 0.9996707696883 -79.23724939412 0.0255311012668 22.166405719809
8.624000000000001 0.0255296597115 -0.633415433401 0.9996707821031 -79.23913332612 0.9996707821031 -79.23913332612 0.0255306059505 22.165217302043
8.624200000000000 0.0255291625146 -0.635994933336 0.9996707945620 -79.24101736006 0.9996707945620 -79.24101736006 0.0255301088794 22.164029649678
8.624400000000001 0.0255286635566 -0.638575402653 0.9996708070650 -79.24290149629 0.9996708070650 -79.24290149629 0.0255296100474 22.162842765226
8.624600000000001 0.0255281628313 -0.641156844854 0.9996708196124 -79.24478573518 0.9996708196124 -79.24478573518 0.0255291094485 22.161656651438
8.624800000000000 0.0255276603347 -0.643739262226 0.9996708322042 -79.24667007696 0.9996708322042 -79.24667007696 0.0255286070786 22.160471310328
8.625000000000000 0.0255271560586 -0.646322659232 0.9996708448407 -79.24855452211 0.9996708448407 -79.24855452211 0.0255281029295 22.159286745544
8.625200000000001 0.0255266499994 -0.648907038248 0.9996708575219 -79.25043907085 0.9996708575219 -79.25043907085 0.0255275969977 22.158102958652
8.625400000000001 0.0255261421500 -0.651492402953 0.9996708702479 -79.25232372359 0.9996708702479 -79.25232372359 0.0255270892759 22.156919953132
8.625600000000000 0.0255256325039 -0.654078757281 0.9996708830191 -79.25420848071 0.9996708830191 -79.25420848071 0.0255265797578 22.155737731525
8.625800000000000 0.0255251210561 -0.656666104045 0.9996708958354 -79.25609334250 0.9996708958354 -79.25609334250 0.0255260684383 22.154556296398
8.626000000000001 0.0255246078002 -0.659254446847 0.9996709086971 -79.25797830935 0.9996709086971 -79.25797830935 0.0255255553111 22.153375650487
8.626200000000001 0.0255240927308 -0.661843788693 0.9996709216042 -79.25986338157 0.9996709216042 -79.25986338157 0.0255250403706 22.152195796511
8.626400000000000 0.0255235758415 -0.664434133343 0.9996709345569 -79.26174855954 0.9996709345569 -79.26174855954 0.0255245236106 22.151016737169
8.626600000000000 0.0255230571259 -0.667025484478 0.9996709475555 -79.26363384362 0.9996709475555 -79.26363384362 0.0255240050247 22.149838475249
8.626800000000001 0.0255225365780 -0.669617845407 0.9996709606000 -79.26551923418 0.9996709606000 -79.26551923418 0.0255234846067 22.148661013658
8.627000000000001 0.0255220141929 -0.672211219033 0.9996709736906 -79.26740473150 0.9996709736906 -79.26740473150 0.0255229623519 22.147484354630
8.627200000000000 0.0255214899626 -0.674805609656 0.9996709868274 -79.26929033604 0.9996709868274 -79.26929033604 0.0255224382523 22.146308501736
8.627400000000000 0.0255209638826 -0.677401020276 0.9996710000106 -79.27117604810 0.9996710000106 -79.27117604810 0.0255219123032 22.145133457015
8.627600000000001 0.0255204359458 -0.679997454558 0.9996710132403 -79.27306186805 0.9996710132403 -79.27306186805 0.0255213844977 22.143959223755
8.627800000000001 0.0255199061453 -0.682594916392 0.9996710265167 -79.27494779632 0.9996710265167 -79.27494779632 0.0255208548290 22.142785805059
8.628000000000000 0.0255193744772 -0.685193408419 0.9996710398399 -79.27683383314 0.9996710398399 -79.27683383314 0.0255203232929 22.141613202664
8.628200000000001 0.0255188409329 -0.687792935144 0.9996710532101 -79.27871997902 0.9996710532101 -79.27871997902 0.0255197898809 22.140441420658
8.628400000000001 0.0255183055073 -0.690393499665 0.9996710666275 -79.28060623424 0.9996710666275 -79.28060623424 0.0255192545880 22.139270461114
8.628600000000000 0.0255177681935 -0.692995105834 0.9996710800922 -79.28249259922 0.9996710800922 -79.28249259922 0.0255187174072 22.138100327331
8.628800000000000 0.0255172289853 -0.695597757288 0.9996710936044 -79.28437907432 0.9996710936044 -79.28437907432 0.0255181783324 22.136931021960
8.629000000000001 0.0255166878766 -0.698201457353 0.9996711071641 -79.28626565990 0.9996711071641 -79.28626565990 0.0255176373575 22.135762547991
8.629200000000001 0.0255161448612 -0.700806209763 0.9996711207717 -79.28815235632 0.9996711207717 -79.28815235632 0.0255170944761 22.134594908134
8.629400000000000 0.0255155999319 -0.703412018443 0.9996711344272 -79.29003916401 0.9996711344272 -79.29003916401 0.0255165496813 22.133428105709
8.629600000000000 0.0255150530825 -0.706018886930 0.9996711481307 -79.29192608332 0.9996711481307 -79.29192608332 0.0255160029667 22.132262143480
8.629800000000001 0.0255145043062 -0.708626819303 0.9996711618826 -79.29381311467 0.9996711618826 -79.29381311467 0.0255154543256 22.131097024494
8.630000000000001 0.0255139535975 -0.711235818506 0.9996711756828 -79.29570025837 0.9996711756828 -79.29570025837 0.0255149037523 22.129932751491
8.630200000000000 0.0255134009493 -0.713845888749 0.9996711895317 -79.29758751484 0.9996711895317 -79.29758751484 0.0255143512400 22.128769327410
8.630400000000000 0.0255128463548 -0.716457033585 0.9996712034292 -79.29947488447 0.9996712034292 -79.29947488447 0.0255137967817 22.127606755710
8.630600000000001 0.0255122898071 -0.719069257231 0.9996712173756 -79.30136236767 0.9996712173756 -79.30136236767 0.0255132403707 22.126445039141
8.630800000000001 0.0255117312998 -0.721682563502 0.9996712313712 -79.30324996483 0.9996712313712 -79.30324996483 0.0255126820003 22.125284180683
8.631000000000000 0.0255111708266 -0.724296955677 0.9996712454160 -79.30513767631 0.9996712454160 -79.30513767631 0.0255121216643 22.124124183505
8.631200000000000 0.0255106083807 -0.726912437722 0.9996712595101 -79.30702550250 0.9996712595101 -79.30702550250 0.0255115593562 22.122965050399
8.631400000000001 0.0255100439546 -0.729529013897 0.9996712736538 -79.30891344386 0.9996712736538 -79.30891344386 0.0255109950681 22.121806785015
8.631600000000001 0.0255094775425 -0.732146687652 0.9996712878473 -79.31080150071 0.9996712878473 -79.31080150071 0.0255104287945 22.120649389785
8.631800000000000 0.0255089091372 -0.734765462959 0.9996713020906 -79.31268967349 0.9996713020906 -79.31268967349 0.0255098605279 22.119492868215
8.632000000000000 0.0255083387317 -0.737385343873 0.9996713163840 -79.31457796260 0.9996713163840 -79.31457796260 0.0255092902616 22.118337223219
8.632200000000001 0.0255077663195 -0.740006334104 0.9996713307276 -79.31646636843 0.9996713307276 -79.31646636843 0.0255087179889 22.117182458018
8.632400000000001 0.0255071918930 -0.742628438027 0.9996713451217 -79.31835489142 0.9996713451217 -79.31835489142 0.0255081437023 22.116028575940
8.632600000000000 0.0255066154464 -0.745251658861 0.9996713595663 -79.32024353191 0.9996713595663 -79.32024353191 0.0255075673960 22.114875579721
8.632800000000001 0.0255060369710 -0.747876001608 0.9996713740616 -79.32213229041 0.9996713740616 -79.32213229041 0.0255069890613 22.113723473265
8.633000000000001 0.0255054564615 -0.750501469310 0.9996713886078 -79.32402116724 0.9996713886078 -79.32402116724 0.0255064086928 22.112572259084
8.633200000000000 0.0255048739104 -0.753128066395 0.9996714032052 -79.32591016283 0.9996714032052 -79.32591016283 0.0255058262832 22.111421940323
8.633400000000000 0.0255042893096 -0.755755797285 0.9996714178538 -79.32779927767 0.9996714178538 -79.32779927767 0.0255052418241 22.110272521033
8.633600000000001 0.0255037026534 -0.758384665358 0.9996714325539 -79.32968851208 0.9996714325539 -79.32968851208 0.0255046553102 22.109124003574
8.633800000000001 0.0255031139341 -0.761014674867 0.9996714473055 -79.33157786652 0.9996714473055 -79.33157786652 0.0255040667334 22.107976391755
8.634000000000000 0.0255025231449 -0.763645829953 0.9996714621089 -79.33346734139 0.9996714621089 -79.33346734139 0.0255034760872 22.106829688301
8.634200000000000 0.0255019302763 -0.766278135719 0.9996714769643 -79.33535693724 0.9996714769643 -79.33535693724 0.0255028833620 22.105683897801
8.634400000000001 0.0255013353247 -0.768911594641 0.9996714918719 -79.33724665429 0.9996714918719 -79.33724665429 0.0255022885541 22.104539021731
8.634600000000001 0.0255007382808 -0.771546211628 0.9996715068317 -79.33913649308 0.9996715068317 -79.33913649308 0.0255016916544 22.103395064610
8.634800000000000 0.0255001391369 -0.774181991306 0.9996715218440 -79.34102645407 0.9996715218440 -79.34102645407 0.0255010926550 22.102252029745
8.635000000000000 0.0254995378878 -0.776818936649 0.9996715369090 -79.34291653755 0.9996715369090 -79.34291653755 0.0255004915509 22.101109919570
8.635200000000001 0.0254989345231 -0.779457053656 0.9996715520270 -79.34480674415 0.9996715520270 -79.34480674415 0.0254998883315 22.099968738728
8.635400000000001 0.0254983290375 -0.782096345093 0.9996715671978 -79.34669707417 0.9996715671978 -79.34669707417 0.0254992829917 22.098828489910
8.635600000000000 0.0254977214230 -0.784736816001 0.9996715824221 -79.34858752809 0.9996715824221 -79.34858752809 0.0254986755233 22.097689176371
8.635800000000000 0.0254971116721 -0.787378470151 0.9996715976996 -79.35047810633 0.9996715976996 -79.35047810633 0.0254980659190 22.096550801999
8.636000000000001 0.0254964997771 -0.790021312251 0.9996716130307 -79.35236880937 0.9996716130307 -79.35236880937 0.0254974541710 22.095413370063
8.636200000000001 0.0254958857312 -0.792665346206 0.9996716284157 -79.35425963759 0.9996716284157 -79.35425963759 0.0254968402724 22.094276883721
8.636400000000000 0.0254952695254 -0.795310577083 0.9996716438546 -79.35615059152 0.9996716438546 -79.35615059152 0.0254962242144 22.093141347023
8.636600000000001 0.0254946511533 -0.797957008607 0.9996716593476 -79.35804167154 0.9996716593476 -79.35804167154 0.0254956059904 22.092006762965
8.636800000000001 0.0254940306071 -0.800604645114 0.9996716748950 -79.35993287810 0.9996716748950 -79.35993287810 0.0254949855929 22.090873135154
8.637000000000000 0.0254934078782 -0.803253491626 0.9996716904969 -79.36182421172 0.9996716904969 -79.36182421172 0.0254943630131 22.089740467500
8.637200000000000 0.0254927829597 -0.805903552244 0.9996717061535 -79.36371567280 0.9996717061535 -79.36371567280 0.0254937382440 22.088608763046
8.637400000000001 0.0254921558435 -0.808554831414 0.9996717218651 -79.36560726181 0.9996717218651 -79.36560726181 0.0254931112776 22.087478025690
8.637600000000001 0.0254915265222 -0.811207333412 0.9996717376317 -79.36749897919 0.9996717376317 -79.36749897919 0.0254924821066 22.086348258693
8.637800000000000 0.0254908949872 -0.813861063200 0.9996717534537 -79.36939082545 0.9996717534537 -79.36939082545 0.0254918507223 22.085219466065
8.638000000000000 0.0254902612312 -0.816516024764 0.9996717693310 -79.37128280100 0.9996717693310 -79.37128280100 0.0254912171175 22.084091651234
8.638200000000001 0.0254896252465 -0.819172222888 0.9996717852641 -79.37317490631 0.9996717852641 -79.37317490631 0.0254905812843 22.082964817527
8.638400000000001 0.0254889870245 -0.821829662329 0.9996718012531 -79.37506714188 0.9996718012531 -79.37506714188 0.0254899432143 22.081838968998
8.638600000000000 0.0254883465568 -0.824488347849 0.9996718172981 -79.37695950820 0.9996718172981 -79.37695950820 0.0254893028990 22.080714109421
8.638800000000000 0.0254877038371 -0.827148283154 0.9996718333994 -79.37885200564 0.9996718333994 -79.37885200564 0.0254886603322 22.079590241822
8.639000000000001 0.0254870588553 -0.829809473859 0.9996718495571 -79.38074463480 0.9996718495571 -79.38074463480 0.0254880155037 22.078467370800
8.639200000000001 0.0254864116050 -0.832471923940 0.9996718657716 -79.38263739606 0.9996718657716 -79.38263739606 0.0254873684070 22.077345499225
8.639400000000000 0.0254857620766 -0.835135638627 0.9996718820428 -79.38453028996 0.9996718820428 -79.38453028996 0.0254867190328 22.076224631494
8.639600000000000 0.0254851102623 -0.837800622617 0.9996718983712 -79.38642331699 0.9996718983712 -79.38642331699 0.0254860673731 22.075104771147
8.639800000000001 0.0254844561544 -0.840466880138 0.9996719147568 -79.38831647758 0.9996719147568 -79.38831647758 0.0254854134202 22.073985921883
8.640000000000001 0.0254837997444 -0.843134416189 0.9996719311999 -79.39020977223 0.9996719311999 -79.39020977223 0.0254847571657 22.072868087506
8.640200000000000 0.0254831410232 -0.845803235798 0.9996719477007 -79.39210320149 0.9996719477007 -79.39210320149 0.0254840986005 22.071751272244