! Sonnet Data File
! From: emgraph Version : 16.52
! From Project: 171117_Xmon_fullysym
! Data is De-embedded 
! Data File Written: 11/26/2017 21:44:47
!< HDATE 11/26/2017 17:24:49
!< MDATE 11/26/2017 17:24:49
!< PARAMS
!< Lj = 11.0
!< Gap = 1.0
!< Pwid = 2000.0
!< Airgap = 6.0
!< Width = 10.0
!< Lj1 = 11.0
!< END PARAMS
# GHZ S MA R 50.90000
8.600000000000001 0.0246987820083 -0.739677932459 0.9996914923281 -79.06489640312 0.9996914923280 -79.06489640340 0.0246998094236 22.621062843818
!< P1 F=8.6 Eeff=(6.44845572 -2.9799e-5) Z0=(50.9087207 1.17006e-4) R=0.0 C=0.0 
!< P2 F=8.6 Eeff=(6.44845572 -2.9799e-5) Z0=(50.9087207 1.17006e-4) R=0.0 C=0.0 
8.600200000000001 0.0246964406372 -0.743146728123 0.9996915492014 -79.06688796366 0.9996915492014 -79.06688796366 0.0246974685296 22.620553748911
8.600400000000000 0.0246940893741 -0.746620615638 0.9996916062781 -79.06888010257 0.9996916062781 -79.06888010257 0.0246951177269 22.620048599190
8.600600000000000 0.0246917281446 -0.750099599927 0.9996916635897 -79.07087282205 0.9996916635897 -79.07087282205 0.0246927569602 22.619547416445
8.600800000000001 0.0246893568921 -0.753583710377 0.9996917211374 -79.07286612537 0.9996917211374 -79.07286612537 0.0246903861732 22.619050224708
8.601000000000001 0.0246869755518 -0.757072981499 0.9996917789228 -79.07486001635 0.9996917789228 -79.07486001635 0.0246880053008 22.618557050316
8.601200000000000 0.0246845840630 -0.760567445142 0.9996918369472 -79.07685449850 0.9996918369472 -79.07685449850 0.0246856142827 22.618067918390
8.601400000000000 0.0246821823597 -0.764067135518 0.9996918952120 -79.07884957569 0.9996918952120 -79.07884957569 0.0246832130526 22.617582856782
8.601600000000001 0.0246797703817 -0.767572085146 0.9996919537187 -79.08084525142 0.9996919537187 -79.08084525142 0.0246808015505 22.617101889873
8.601800000000001 0.0246773480624 -0.771082328992 0.9996920124689 -79.08284152960 0.9996920124689 -79.08284152960 0.0246783797097 22.616625045098
8.602000000000000 0.0246749153362 -0.774597901247 0.9996920714640 -79.08483841404 0.9996920714640 -79.08483841404 0.0246759474647 22.616152350051
8.602200000000000 0.0246724721392 -0.778118835439 0.9996921307053 -79.08683590847 0.9996921307053 -79.08683590847 0.0246735047516 22.615683831347
8.602400000000001 0.0246700184049 -0.781645167112 0.9996921901945 -79.08883401678 0.9996921901945 -79.08883401678 0.0246710515040 22.615219516301
8.602600000000001 0.0246675540682 -0.785176930510 0.9996922499330 -79.09083274277 0.9996922499330 -79.09083274277 0.0246685876566 22.614759431924
8.602800000000000 0.0246650790604 -0.788714161623 0.9996923099224 -79.09283209045 0.9996923099224 -79.09283209045 0.0246661131409 22.614303606951
8.603000000000000 0.0246625933117 -0.792256897331 0.9996923701643 -79.09483206388 0.9996923701643 -79.09483206388 0.0246636278872 22.613852069956
8.603200000000001 0.0246600967580 -0.795805171414 0.9996924306600 -79.09683266682 0.9996924306600 -79.09683266682 0.0246611318313 22.613404848208
8.603400000000001 0.0246575893274 -0.799359022012 0.9996924914112 -79.09883390346 0.9996924914112 -79.09883390346 0.0246586249014 22.612961971005
8.603600000000000 0.0246550709506 -0.802918485745 0.9996925524197 -79.10083577784 0.9996925524197 -79.10083577784 0.0246561070281 22.612523467235
8.603800000000000 0.0246525415567 -0.806483599689 0.9996926136867 -79.10283829411 0.9996926136867 -79.10283829411 0.0246535781406 22.612089366645
8.604000000000001 0.0246500010758 -0.810054400990 0.9996926752141 -79.10484145633 0.9996926752141 -79.10484145633 0.0246510381690 22.611659698157
8.604200000000001 0.0246474494385 -0.813630926584 0.9996927370034 -79.10684526857 0.9996927370034 -79.10684526857 0.0246484870440 22.611234490536
8.604400000000000 0.0246448865676 -0.817213216464 0.9996927990561 -79.10884973534 0.9996927990561 -79.10884973534 0.0246459246884 22.610813776505
8.604600000000001 0.0246423123949 -0.820801307668 0.9996928613742 -79.11085486059 0.9996928613742 -79.11085486059 0.0246433510340 22.610397583533
8.604800000000001 0.0246397268435 -0.824395240201 0.9996929239590 -79.11286064885 0.9996929239590 -79.11286064885 0.0246407660039 22.609985944415
8.605000000000000 0.0246371298425 -0.827995051728 0.9996929868123 -79.11486710422 0.9996929868123 -79.11486710422 0.0246381695273 22.609578888518
8.605200000000000 0.0246345213118 -0.831600784544 0.9996930499359 -79.11687423141 0.9996930499359 -79.11687423141 0.0246355615241 22.609176449041
8.605400000000001 0.0246319011839 -0.835212474757 0.9996931133313 -79.11888203433 0.9996931133313 -79.11888203433 0.0246329419267 22.608778654397
8.605600000000001 0.0246292693727 -0.838830167746 0.9996931770006 -79.12089051803 0.9996931770006 -79.12089051803 0.0246303106492 22.608385539904
8.605800000000000 0.0246266258097 -0.842453899240 0.9996932409450 -79.12289968649 0.9996932409450 -79.12289968649 0.0246276676232 22.607997135215
8.606000000000000 0.0246239704110 -0.846083714448 0.9996933051668 -79.12490954462 0.9996933051668 -79.12490954462 0.0246250127646 22.607613474425
8.606200000000001 0.0246213031021 -0.849719652560 0.9996933696673 -79.12692009676 0.9996933696673 -79.12692009676 0.0246223459990 22.607234589110
8.606400000000001 0.0246186238018 -0.853361756458 0.9996934344486 -79.12893134766 0.9996934344486 -79.12893134766 0.0246196672453 22.606860513045
8.606600000000000 0.0246159324306 -0.857010068534 0.9996934995125 -79.13094330195 0.9996934995125 -79.13094330195 0.0246169764239 22.606491279417
8.606800000000000 0.0246132289075 -0.860664631533 0.9996935648606 -79.13295596437 0.9996935648606 -79.13295596437 0.0246142734540 22.606126922255
8.607000000000001 0.0246105131537 -0.864325487565 0.9996936304949 -79.13496933951 0.9996936304949 -79.13496933951 0.0246115582566 22.605767474520
8.607200000000001 0.0246077850822 -0.867992681687 0.9996936964170 -79.13698343245 0.9996936964170 -79.13698343245 0.0246088307452 22.605412973004
8.607400000000000 0.0246050446139 -0.871666257443 0.9996937626291 -79.13899824781 0.9996937626291 -79.13899824781 0.0246060908402 22.605063449933
8.607600000000000 0.0246022916631 -0.875346259609 0.9996938291331 -79.14101379059 0.9996938291331 -79.14101379059 0.0246033384561 22.604718941609
8.607800000000001 0.0245995261475 -0.879032731538 0.9996938959304 -79.14303006559 0.9996938959304 -79.14303006559 0.0246005735109 22.604379483093
8.608000000000001 0.0245967479783 -0.882725721116 0.9996939630236 -79.14504707801 0.9996939630236 -79.14504707801 0.0245977959153 22.604045110741
8.608200000000000 0.0245939570729 -0.886425272070 0.9996940304143 -79.14706483266 0.9996940304143 -79.14706483266 0.0245950055872 22.603715859459
8.608400000000001 0.0245911533397 -0.890131432450 0.9996940981043 -79.14908333489 0.9996940981043 -79.14908333489 0.0245922024349 22.603391767971
8.608600000000001 0.0245883366946 -0.893844247625 0.9996941660959 -79.15110258960 0.9996941660959 -79.15110258960 0.0245893863743 22.603072871258
8.608800000000000 0.0245855070493 -0.897563764420 0.9996942343909 -79.15312260196 0.9996942343909 -79.15312260196 0.0245865573170 22.602759206734
8.609000000000000 0.0245826643097 -0.901290032447 0.9996943029913 -79.15514337745 0.9996943029913 -79.15514337745 0.0245837151693 22.602450813702
8.609200000000001 0.0245798083901 -0.905023097934 0.9996943718992 -79.15716492108 0.9996943718992 -79.15716492108 0.0245808598452 22.602147728167
8.609400000000001 0.0245769391950 -0.908763011253 0.9996944411166 -79.15918723843 0.9996944411166 -79.15918723843 0.0245779912493 22.601849990372
8.609600000000000 0.0245740566395 -0.912509818311 0.9996945106456 -79.16121033444 0.9996945106456 -79.16121033444 0.0245751092968 22.601557635953
8.609800000000000 0.0245711606206 -0.916263573028 0.9996945804884 -79.16323421515 0.9996945804884 -79.16323421515 0.0245722138848 22.601270708356
8.610000000000001 0.0245682510511 -0.920024322427 0.9996946506468 -79.16525888562 0.9996946506468 -79.16525888562 0.0245693049259 22.600989244259
8.610200000000001 0.0245653278338 -0.923792118151 0.9996947211232 -79.16728435154 0.9996947211232 -79.16728435154 0.0245663823233 22.600713284504
8.610400000000000 0.0245623908744 -0.927567010631 0.9996947919197 -79.16931061841 0.9996947919197 -79.16931061841 0.0245634459824 22.600442869077
8.610600000000000 0.0245594400716 -0.931349053647 0.9996948630384 -79.17133769215 0.9996948630384 -79.17133769215 0.0245604958021 22.600178040244
8.610800000000001 0.0245564753336 -0.935138296471 0.9996949344815 -79.17336557812 0.9996949344815 -79.17336557812 0.0245575316906 22.599918837220
8.611000000000001 0.0245534965557 -0.938934794620 0.9996950062513 -79.17539428242 0.9996950062513 -79.17539428242 0.0245545535432 22.599665303747
8.611200000000000 0.0245505036431 -0.942738599312 0.9996950783500 -79.17742381060 0.9996950783500 -79.17742381060 0.0245515612653 22.599417479940
8.611400000000000 0.0245474964905 -0.946549766045 0.9996951507798 -79.17945416879 0.9996951507798 -79.17945416879 0.0245485547514 22.599175410366
8.611600000000001 0.0245444749996 -0.950368347445 0.9996952235429 -79.18148536275 0.9996952235429 -79.18148536275 0.0245455339035 22.598939136849
8.611800000000001 0.0245414390678 -0.954194399144 0.9996952966418 -79.18351739845 0.9996952966418 -79.18351739845 0.0245424986188 22.598708702070
8.612000000000000 0.0245383885888 -0.958027976835 0.9996953700786 -79.18555028211 0.9996953700786 -79.18555028211 0.0245394487911 22.598484151812
8.612200000000001 0.0245353234563 -0.961869137421 0.9996954438557 -79.18758401993 0.9996954438557 -79.18758401993 0.0245363843144 22.598265530751
8.612400000000001 0.0245322435698 -0.965717936167 0.9996955179757 -79.18961861777 0.9996955179757 -79.18961861777 0.0245333050879 22.598052880634
8.612600000000000 0.0245291488183 -0.969574430976 0.9996955924407 -79.19165408213 0.9996955924407 -79.19165408213 0.0245302110007 22.597846249456
8.612800000000000 0.0245260390922 -0.973438680908 0.9996956672534 -79.19369041939 0.9996956672534 -79.19369041939 0.0245271019435 22.597645683080
8.613000000000001 0.0245229142867 -0.977310742407 0.9996957424160 -79.19572763568 0.9996957424159 -79.19572763568 0.0245239778112 22.597451226132
8.613200000000001 0.0245197742885 -0.981190675658 0.9996958179309 -79.19776573760 0.9996958179309 -79.19776573760 0.0245208384908 22.597262926785
8.613400000000000 0.0245166189864 -0.985078540637 0.9996958938008 -79.19980473166 0.9996958938008 -79.19980473166 0.0245176838711 22.597080831974
8.613600000000000 0.0245134482674 -0.988974397956 0.9996959700282 -79.20184462445 0.9996959700282 -79.20184462445 0.0245145138389 22.596904989555
8.613800000000001 0.0245102620197 -0.992878306609 0.9996960466152 -79.20388542249 0.9996960466152 -79.20388542249 0.0245113282829 22.596735448029
8.614000000000001 0.0245070601263 -0.996790330531 0.9996961235650 -79.20592713262 0.9996961235650 -79.20592713262 0.0245081270858 22.596572255765
8.614200000000000 0.0245038424722 -1.000710531240 0.9996962008799 -79.20796976155 0.9996962008799 -79.20796976155 0.0245049101327 22.596415462090
8.614400000000000 0.0245006089377 -1.004638972553 0.9996962785624 -79.21001331628 0.9996962785624 -79.21001331628 0.0245016773040 22.596265118166
8.614600000000001 0.0244973594054 -1.008575717496 0.9996963566152 -79.21205780365 0.9996963566152 -79.21205780365 0.0244984284824 22.596121273861
8.614800000000001 0.0244940937569 -1.012520830051 0.9996964350411 -79.21410323057 0.9996964350411 -79.21410323057 0.0244951635495 22.595983979469
8.615000000000000 0.0244908118661 -1.016474377522 0.9996965138426 -79.21614960442 0.9996965138426 -79.21614960442 0.0244918823793 22.595853288622
8.615200000000000 0.0244875136160 -1.020436423197 0.9996965930226 -79.21819693202 0.9996965930226 -79.21819693202 0.0244885848546 22.595729251373
8.615400000000001 0.0244841988834 -1.024407033336 0.9996966725836 -79.22024522055 0.9996966725836 -79.22024522055 0.0244852708527 22.595611920249
8.615600000000001 0.0244808675394 -1.028386277349 0.9996967525287 -79.22229447756 0.9996967525287 -79.22229447756 0.0244819402443 22.595501349879
8.615800000000000 0.0244775194573 -1.032374223163 0.9996968328606 -79.22434471045 0.9996968328606 -79.22434471045 0.0244785929030 22.595397594473
8.616000000000000 0.0244741545130 -1.036370937574 0.9996969135820 -79.22639592644 0.9996969135820 -79.22639592644 0.0244752287047 22.595300707479
8.616200000000001 0.0244707725722 -1.040376492692 0.9996969946957 -79.22844813339 0.9996969946957 -79.22844813339 0.0244718475152 22.595210745828
8.616400000000001 0.0244673735083 -1.044390957088 0.9996970762048 -79.23050133868 0.9996970762048 -79.23050133868 0.0244684492080 22.595127763640
8.616600000000000 0.0244639571892 -1.048414402050 0.9996971581122 -79.23255555004 0.9996971581122 -79.23255555004 0.0244650336509 22.595051817596
8.616800000000001 0.0244605234788 -1.052446900933 0.9996972404209 -79.23461077540 0.9996972404209 -79.23461077540 0.0244616007079 22.594982965399
8.617000000000001 0.0244570722478 -1.056488523016 0.9996973231334 -79.23666702232 0.9996973231334 -79.23666702232 0.0244581502499 22.594921263552
8.617200000000000 0.0244536033540 -1.060539345369 0.9996974062533 -79.23872429910 0.9996974062533 -79.23872429910 0.0244546821346 22.594866771894
8.617400000000000 0.0244501166621 -1.064599442021 0.9996974897838 -79.24078261364 0.9996974897838 -79.24078261364 0.0244511962266 22.594819547919
8.617600000000001 0.0244466120312 -1.068668886853 0.9996975737272 -79.24284197417 0.9996975737272 -79.24284197417 0.0244476923855 22.594779653799
8.617800000000001 0.0244430893237 -1.072747755970 0.9996976580871 -79.24490238872 0.9996976580871 -79.24490238872 0.0244441704735 22.594747147283
8.618000000000000 0.0244395483961 -1.076836126084 0.9996977428665 -79.24696386567 0.9996977428665 -79.24696386567 0.0244406303472 22.594722090680
8.618200000000000 0.0244359891026 -1.080934076307 0.9996978280686 -79.24902641353 0.9996978280686 -79.24902641353 0.0244370718609 22.594704546016
8.618400000000001 0.0244324112963 -1.085041686169 0.9996979136969 -79.25109004088 0.9996979136969 -79.25109004088 0.0244334948677 22.594694576304
8.618600000000001 0.0244288148352 -1.089159032519 0.9996979997542 -79.25315475603 0.9996979997542 -79.25315475603 0.0244298992256 22.594692243281
8.618800000000000 0.0244251995658 -1.093286198146 0.9996980862440 -79.25522056791 0.9996980862440 -79.25522056791 0.0244262847813 22.594697612473
8.619000000000000 0.0244215653402 -1.097423263180 0.9996981731695 -79.25728748518 0.9996981731695 -79.25728748518 0.0244226513871 22.594710747930
8.619200000000001 0.0244179120068 -1.101570310119 0.9996982605342 -79.25935551668 0.9996982605342 -79.25935551668 0.0244189988911 22.594731714614
8.619400000000001 0.0244142394088 -1.105727423731 0.9996983483414 -79.26142467158 0.9996983483414 -79.26142467158 0.0244153271368 22.594760580000
8.619600000000000 0.0244105473931 -1.109894687251 0.9996984365946 -79.26349495881 0.9996984365946 -79.26349495881 0.0244116359711 22.594797410116
8.619800000000000 0.0244068358020 -1.114072186289 0.9996985252974 -79.26556638758 0.9996985252974 -79.26556638758 0.0244079252364 22.594842273056
8.620000000000001 0.0244031044734 -1.118260007755 0.9996986144527 -79.26763896735 0.9996986144527 -79.26763896735 0.0244041947709 22.594895239342
8.620200000000001 0.0243993532516 -1.122458238042 0.9996987040649 -79.26971270723 0.9996987040649 -79.26971270723 0.0244004444184 22.594956375051
8.620400000000000 0.0243955819687 -1.126666966241 0.9996987941367 -79.27178761700 0.9996987941367 -79.27178761700 0.0243966740116 22.595025754135
8.620600000000001 0.0243917904622 -1.130886282274 0.9996988846723 -79.27386370618 0.9996988846723 -79.27386370618 0.0243928833878 22.595103445707
8.620800000000001 0.0243879785662 -1.135116275367 0.9996989756751 -79.27594098443 0.9996989756751 -79.27594098443 0.0243890723814 22.595189522348
8.621000000000000 0.0243841461122 -1.139357038106 0.9996990671490 -79.27801946160 0.9996990671490 -79.27801946160 0.0243852408238 22.595284056176
8.621200000000000 0.0243802929268 -1.143608663744 0.9996991590976 -79.28009914782 0.9996991590976 -79.28009914782 0.0243813885417 22.595387123071
8.621400000000001 0.0243764188405 -1.147871244916 0.9996992515245 -79.28218005298 0.9996992515245 -79.28218005298 0.0243775153658 22.595498796379
8.621600000000001 0.0243725236783 -1.152144877846 0.9996993444340 -79.28426218732 0.9996993444340 -79.28426218732 0.0243736211210 22.595619151168
8.621800000000000 0.0243686072641 -1.156429657250 0.9996994378294 -79.28634556110 0.9996994378294 -79.28634556110 0.0243697056313 22.595748265143
8.622000000000000 0.0243646694149 -1.160725683167 0.9996995317150 -79.28843018502 0.9996995317150 -79.28843018502 0.0243657687140 22.595886216691
8.622200000000001 0.0243607099589 -1.165033049925 0.9996996260946 -79.29051606910 0.9996996260946 -79.29051606910 0.0243618101972 22.596033081034
8.622400000000001 0.0243567287054 -1.169351860452 0.9996997209721 -79.29260322449 0.9996997209721 -79.29260322449 0.0243578298904 22.596188941287
8.622600000000000 0.0243527254725 -1.173682215902 0.9996998163521 -79.29469166182 0.9996998163521 -79.29469166182 0.0243538276114 22.596353875187
8.622800000000000 0.0243487000738 -1.178024215968 0.9996999122379 -79.29678139195 0.9996999122379 -79.29678139195 0.0243498031745 22.596527965723
8.623000000000001 0.0243446523153 -1.182377967484 0.9997000086340 -79.29887242624 0.9997000086340 -79.29887242624 0.0243457563854 22.596711296377
8.623200000000001 0.0243405820144 -1.186743570603 0.9997001055445 -79.30096477533 0.9997001055445 -79.30096477533 0.0243416870618 22.596903947119
8.623400000000000 0.0243364889672 -1.191121135917 0.9997002029737 -79.30305845114 0.9997002029737 -79.30305845114 0.0243375949997 22.597106006915
8.623600000000000 0.0243323729835 -1.195510768903 0.9997003009260 -79.30515346478 0.9997003009260 -79.30515346478 0.0243334800090 22.597317557902
8.623800000000001 0.0243282338614 -1.199912579203 0.9997003994057 -79.30724982804 0.9997003994057 -79.30724982804 0.0243293418880 22.597538688845
8.624000000000001 0.0243240714042 -1.204326674337 0.9997004984168 -79.30934755240 0.9997004984168 -79.30934755240 0.0243251804401 22.597769486282
8.624200000000000 0.0243198854022 -1.208753169577 0.9997005979641 -79.31144665011 0.9997005979641 -79.31144665011 0.0243209954556 22.598010040970
8.624400000000001 0.0243156756545 -1.213192174765 0.9997006980519 -79.31354713292 0.9997006980519 -79.31354713292 0.0243167867338 22.598260441643
8.624600000000001 0.0243114419509 -1.217643805706 0.9997007986849 -79.31564901309 0.9997007986849 -79.31564901309 0.0243125540646 22.598520779586
8.624800000000000 0.0243071840806 -1.222108177886 0.9997008998676 -79.31775230293 0.9997008998676 -79.31775230293 0.0243082972371 22.598791147353
8.625000000000000 0.0243029018280 -1.226585409190 0.9997010016046 -79.31985701505 0.9997010016046 -79.31985701505 0.0243040160361 22.599071639876
8.625200000000001 0.0242985949803 -1.231075617552 0.9997011039008 -79.32196316186 0.9997011039008 -79.32196316186 0.0242997102487 22.599362349651
8.625400000000001 0.0242942633162 -1.235578922694 0.9997012067602 -79.32407075629 0.9997012067602 -79.32407075629 0.0242953796540 22.599663375571
8.625600000000000 0.0242899066112 -1.240095449347 0.9997013101885 -79.32617981146 0.9997013101885 -79.32617981146 0.0242910240274 22.599974814692
8.625800000000000 0.0242855246478 -1.244625318529 0.9997014141906 -79.32829034008 0.9997014141906 -79.32829034008 0.0242866431512 22.600296762249
8.626000000000001 0.0242811171934 -1.249168656063 0.9997015187707 -79.33040235572 0.9997015187707 -79.33040235572 0.0242822367934 22.600629321909
8.626200000000001 0.0242766840191 -1.253725588425 0.9997016239342 -79.33251587175 0.9997016239342 -79.33251587175 0.0242778047250 22.600972594172
8.626400000000000 0.0242722248930 -1.258296244138 0.9997017296861 -79.33463090172 0.9997017296861 -79.33463090172 0.0242733467143 22.601326680680
8.626600000000000 0.0242677395743 -1.262880754804 0.9997018360313 -79.33674745970 0.9997018360313 -79.33674745970 0.0242688625207 22.601691688228
8.626800000000001 0.0242632278314 -1.267479250254 0.9997019429756 -79.33886555922 0.9997019429756 -79.33886555922 0.0242643519123 22.602067717809
8.627000000000001 0.0242586894205 -1.272091862701 0.9997020505233 -79.34098521452 0.9997020505233 -79.34098521452 0.0242598146459 22.602454879017
8.627200000000000 0.0242541240910 -1.276718731665 0.9997021586803 -79.34310644023 0.9997021586803 -79.34310644023 0.0242552504709 22.602853280937
8.627400000000000 0.0242495315981 -1.281359992264 0.9997022674519 -79.34522925065 0.9997022674519 -79.34522925065 0.0242506591425 22.603263032293
8.627600000000001 0.0242449116927 -1.286015782551 0.9997023768435 -79.34735366034 0.9997023768435 -79.34735366034 0.0242460404118 22.603684243266
8.627800000000001 0.0242402641140 -1.290686246066 0.9997024868605 -79.34947968453 0.9997024868605 -79.34947968453 0.0242413940182 22.604117029431
8.628000000000000 0.0242355886127 -1.295371521263 0.9997025975083 -79.35160733778 0.9997025975083 -79.35160733778 0.0242367197123 22.604561501567
8.628200000000001 0.0242308849212 -1.300071756134 0.9997027087928 -79.35373663573 0.9997027087928 -79.35373663573 0.0242320172269 22.605017778027
8.628400000000001 0.0242261527747 -1.304787098100 0.9997028207200 -79.35586759384 0.9997028207200 -79.35586759384 0.0242272862972 22.605485975496
8.628600000000000 0.0242213919060 -1.309517693132 0.9997029332946 -79.35800022771 0.9997029332946 -79.35800022771 0.0242225266563 22.605966214883
8.628800000000000 0.0242166020428 -1.314263694604 0.9997030465235 -79.36013455328 0.9997030465235 -79.36013455328 0.0242177380318 22.606458615012
8.629000000000001 0.0242117829133 -1.319025252600 0.9997031604121 -79.36227058639 0.9997031604121 -79.36227058639 0.0242129201523 22.606963297785
8.629200000000001 0.0242069342328 -1.323802524735 0.9997032749666 -79.36440834370 0.9997032749666 -79.36440834370 0.0242080727330 22.607480389803
8.629400000000000 0.0242020557229 -1.328595666018 0.9997033901928 -79.36654784146 0.9997033901928 -79.36654784146 0.0242031954959 22.608010015324
8.629600000000000 0.0241971470982 -1.333404835955 0.9997035060972 -79.36868909635 0.9997035060972 -79.36868909635 0.0241982881554 22.608552300980
8.629800000000001 0.0241922080617 -1.338230198445 0.9997036226858 -79.37083212572 0.9997036226858 -79.37083212572 0.0241933504150 22.609107379775
8.630000000000001 0.0241872383248 -1.343071914381 0.9997037399648 -79.37297694642 0.9997037399648 -79.37297694642 0.0241883819862 22.609675380835
8.630200000000000 0.0241822375886 -1.347930150794 0.9997038579408 -79.37512357592 0.9997038579408 -79.37512357592 0.0241833825702 22.610256437279
8.630400000000000 0.0241772055495 -1.352805076446 0.9997039766200 -79.37727203196 0.9997039766200 -79.37727203196 0.0241783518635 22.610850685186
8.630600000000001 0.0241721418993 -1.357696862783 0.9997040960091 -79.37942233254 0.9997040960091 -79.37942233254 0.0241732895582 22.611458262757
8.630800000000001 0.0241670463330 -1.362605681982 0.9997042161151 -79.38157449549 0.9997042161151 -79.38157449549 0.0241681953492 22.612079305357
8.631000000000000 0.0241619185326 -1.367531709881 0.9997043369443 -79.38372853938 0.9997043369443 -79.38372853938 0.0241630689190 22.612713956730
8.631200000000000 0.0241567581782 -1.372475124625 0.9997044585032 -79.38588448290 0.9997044585032 -79.38588448290 0.0241579099478 22.613362360962
8.631400000000001 0.0241515649484 -1.377436107530 0.9997045807994 -79.38804234483 0.9997045807993 -79.38804234483 0.0241527181142 22.614024661213
8.631600000000001 0.0241463385122 -1.382414841714 0.9997047038390 -79.39020214450 0.9997047038390 -79.39020214450 0.0241474930877 22.614701007635
8.631800000000000 0.0241410785416 -1.387411513931 0.9997048276303 -79.39236390110 0.9997048276303 -79.39236390110 0.0241422345400 22.615391545612
8.632000000000000 0.0241357846959 -1.392426311532 0.9997049521792 -79.39452763451 0.9997049521792 -79.39452763451 0.0241369421312 22.616096431189
8.632200000000001 0.0241304566362 -1.397459427004 0.9997050774939 -79.39669336455 0.9997050774939 -79.39669336455 0.0241316155220 22.616815815258
8.632400000000001 0.0241250940123 -1.402511055176 0.9997052035812 -79.39886111167 0.9997052035812 -79.39886111167 0.0241262543629 22.617549856742
8.632600000000000 0.0241196964767 -1.407581391235 0.9997053304485 -79.40103089618 0.9997053304485 -79.40103089618 0.0241208583063 22.618298712919
8.632800000000001 0.0241142636695 -1.412670639053 0.9997054581042 -79.40320273911 0.9997054581042 -79.40320273911 0.0241154269925 22.619062544384
8.633000000000001 0.0241087952294 -1.417778999032 0.9997055865549 -79.40537666156 0.9997055865549 -79.40537666156 0.0241099600606 22.619841516945
8.633200000000000 0.0241032907956 -1.422906676127 0.9997057158089 -79.40755268463 0.9997057158089 -79.40755268463 0.0241044571498 22.620635792876
8.633400000000000 0.0240977499874 -1.428053884363 0.9997058458744 -79.40973083056 0.9997058458744 -79.40973083056 0.0240989178796 22.621445543787
8.633600000000001 0.0240921724348 -1.433220830581 0.9997059767586 -79.41191112097 0.9997059767586 -79.41191112097 0.0240933418804 22.622270939689
8.633800000000001 0.0240865577512 -1.438407734080 0.9997061084701 -79.41409357844 0.9997061084701 -79.41409357844 0.0240877287658 22.623112154253
8.634000000000000 0.0240809055527 -1.443614811179 0.9997062410170 -79.41627822542 0.9997062410170 -79.41627822542 0.0240820781519 22.623969362725
8.634200000000000 0.0240752154318 -1.448842290483 0.9997063744076 -79.41846508571 0.9997063744076 -79.41846508571 0.0240763896318 22.624842750024
8.634400000000001 0.0240694870063 -1.454090389617 0.9997065086504 -79.42065418166 0.9997065086504 -79.42065418166 0.0240706628232 22.625732490446
8.634600000000001 0.0240637198669 -1.459359338220 0.9997066437533 -79.42284553716 0.9997066437533 -79.42284553716 0.0240648973173 22.626638771613
8.634800000000000 0.0240579135938 -1.464649375370 0.9997067797261 -79.42503917678 0.9997067797261 -79.42503917678 0.0240590926943 22.627561782481
8.635000000000000 0.0240520677769 -1.469960732403 0.9997069165770 -79.42723512446 0.9997069165770 -79.42723512446 0.0240532485445 22.628501711697
8.635200000000001 0.0240461819933 -1.475293648697 0.9997070543148 -79.42943340493 0.9997070543148 -79.42943340493 0.0240473644451 22.629458753066
8.635400000000001 0.0240402558038 -1.480648371718 0.9997071929483 -79.43163404383 0.9997071929483 -79.43163404383 0.0240414399576 22.630433107358
8.635600000000000 0.0240342887827 -1.486025146376 0.9997073324876 -79.43383706608 0.9997073324876 -79.43383706608 0.0240354746559 22.631424967750
8.635800000000000 0.0240282804856 -1.491424221599 0.9997074729407 -79.43604249762 0.9997074729407 -79.43604249762 0.0240294680964 22.632434540794
8.636000000000001 0.0240222304585 -1.496845857535 0.9997076143183 -79.43825036500 0.9997076143183 -79.43825036500 0.0240234198250 22.633462032131
8.636200000000001 0.0240161382470 -1.502290311041 0.9997077566292 -79.44046069477 0.9997077566292 -79.44046069477 0.0240173293879 22.634507651939
8.636400000000000 0.0240100033906 -1.507757844619 0.9997078998831 -79.44267351385 0.9997078998831 -79.44267351385 0.0240111963247 22.635571611949
8.636600000000001 0.0240038254160 -1.513248728084 0.9997080440903 -79.44488884989 0.9997080440903 -79.44488884989 0.0240050201624 22.636654129107
8.636800000000001 0.0239976038426 -1.518763234213 0.9997081892603 -79.44710673100 0.9997081892603 -79.44710673100 0.0239988004208 22.637755425440
8.637000000000000 0.0239913381949 -1.524301634910 0.9997083354032 -79.44932718495 0.9997083354032 -79.44932718495 0.0239925366245 22.638875720854
8.637200000000000 0.0239850279731 -1.529864216049 0.9997084825300 -79.45155024097 0.9997084825300 -79.45155024097 0.0239862282742 22.640015244297
8.637400000000001 0.0239786726775 -1.535451261530 0.9997086306503 -79.45377592827 0.9997086306503 -79.45377592827 0.0239798748704 22.641174228275
8.637600000000001 0.0239722718074 -1.541063057919 0.9997087797746 -79.45600427609 0.9997087797746 -79.45600427609 0.0239734759129 22.642352904763
8.637800000000000 0.0239658248409 -1.546699904877 0.9997089299144 -79.45823531497 0.9997089299144 -79.45823531497 0.0239670308799 22.643551513826
8.638000000000000 0.0239593312600 -1.552362098369 0.9997090810801 -79.46046907517 0.9997090810801 -79.46046907517 0.0239605392537 22.644770296816
8.638200000000001 0.0239527905228 -1.558049948785 0.9997092332831 -79.46270558837 0.9997092332831 -79.46270558837 0.0239540004929 22.646009504037
8.638400000000001 0.0239462020966 -1.563763760298 0.9997093865338 -79.46494488570 0.9997093865338 -79.46494488570 0.0239474140652 22.647269385285
8.638600000000000 0.0239395654355 -1.569503848847 0.9997095408445 -79.46718699908 0.9997095408445 -79.46718699908 0.0239407794249 22.648550192368
8.638800000000000 0.0239328799783 -1.575270534182 0.9997096962259 -79.46943196132 0.9997096962259 -79.46943196132 0.0239340960114 22.649852188538
8.639000000000001 0.0239261451563 -1.581064145051 0.9997098526904 -79.47167980566 0.9997098526904 -79.47167980566 0.0239273632560 22.651175637133
8.639200000000001 0.0239193604034 -1.586885007940 0.9997100102500 -79.47393056520 0.9997100102500 -79.47393056520 0.0239205805931 22.652520802779
8.639400000000000 0.0239125251200 -1.592733464782 0.9997101689159 -79.47618427498 0.9997101689159 -79.47618427498 0.0239137474237 22.653887967004
8.639600000000000 0.0239056387237 -1.598609855551 0.9997103287017 -79.47844096906 0.9997103287017 -79.47844096906 0.0239068631654 22.655277399832
8.639800000000001 0.0238987006028 -1.604514530210 0.9997104896190 -79.48070068320 0.9997104896190 -79.48070068320 0.0238999272073 22.656689389402
8.640000000000001 0.0238917101522 -1.610447838022 0.9997106516799 -79.48296345276 0.9997106516799 -79.48296345276 0.0238929389447 22.658124220765
8.640200000000000 0.0238846667458 -1.616410142719 0.9997108148981 -79.48522931436 0.9997108148981 -79.48522931436 0.0238858977516 22.659582185985