! Sonnet Data File
! From: emgraph Version : 16.52
! From Project: 171117_Xmon_fullysym
! Data is De-embedded 
! Data File Written: 11/26/2017 21:44:47
!< HDATE 11/26/2017 17:24:49
!< MDATE 11/26/2017 17:24:49
!< PARAMS
!< Lj = 11.0
!< Gap = 1.0
!< Pwid = 2000.0
!< Airgap = 6.0
!< Width = 10.0
!< Lj1 = 11.2
!< END PARAMS
# GHZ S MA R 50.90000
8.600000000000001 0.0199532146495 -3.492568501550 0.9997909183627 -79.34236109736 0.9997909183627 -79.34236109764 0.0199573413498 24.858059540842
!< P1 F=8.6 Eeff=(6.44845572 -2.9799e-5) Z0=(50.9087207 1.17006e-4) R=0.0 C=0.0 
!< P2 F=8.6 Eeff=(6.44845572 -2.9799e-5) Z0=(50.9087207 1.17006e-4) R=0.0 C=0.0 
8.600200000000001 0.0198804199016 -3.546406795477 0.9997921936297 -79.34849260718 0.9997921936297 -79.34849260718 0.0198846387668 24.900786547739
8.600400000000000 0.0198057436482 -3.601939363509 0.9997934937572 -79.35473543905 0.9997934937572 -79.35473543905 0.0198100588828 24.945037597473
8.600600000000000 0.0197291122968 -3.659251983983 0.9997948196124 -79.36109398893 0.9997948196124 -79.36109398893 0.0197335283049 24.990891858613
8.600800000000001 0.0196504480225 -3.718436042446 0.9997961718760 -79.36757290817 0.9997961718760 -79.36757290817 0.0196549694863 25.038434829344
8.601000000000001 0.0195696685908 -3.779589519723 0.9997975512624 -79.37417711484 0.9997975512624 -79.37417711484 0.0195743004880 25.087758275591
8.601200000000000 0.0194866874061 -3.842817275327 0.9997989584973 -79.38091179155 0.9997989584973 -79.38091179155 0.0194914350359 25.138960633634
8.601400000000000 0.0194014129830 -3.908231831644 0.9998003943178 -79.38778241730 0.9998003943178 -79.38778241730 0.0194062819971 25.192147782112
8.601600000000001 0.0193137488713 -3.975953969292 0.9998018594944 -79.39479477337 0.9998018594944 -79.39479477337 0.0193187452943 25.247433503488
8.601800000000001 0.0192235929876 -4.046113656819 0.9998033548086 -79.40195498329 0.9998033548086 -79.40195498329 0.0192287232544 25.304940528027
8.602000000000000 0.0191308374137 -4.118850793474 0.9998048810512 -79.40926952614 0.9998048810512 -79.40926952614 0.0191361084076 25.364801275045
8.602200000000000 0.0190353680098 -4.194316186006 0.9998064390306 -79.41674526081 0.9998064390306 -79.41674526081 0.0190407871012 25.427158769660
8.602400000000001 0.0189370638492 -4.272672738912 0.9998080295789 -79.42438946104 0.9998080295789 -79.42438946104 0.0189426389351 25.492167784192
8.602600000000001 0.0188357967508 -4.354096614993 0.9998096535356 -79.43220984459 0.9998096535356 -79.43220984459 0.0188415363066 25.559996076919
8.602800000000000 0.0187314306486 -4.438778681502 0.9998113117465 -79.44021461255 0.9998113117465 -79.44021461255 0.0187373437846 25.630825831663
8.603000000000000 0.0186238210497 -4.526926079148 0.9998130050764 -79.44841248384 0.9998130050764 -79.44841248384 0.0186299175679 25.704855136673
8.603200000000001 0.0185128146009 -4.618763741239 0.9998147343804 -79.45681272326 0.9998147343804 -79.45681272326 0.0185191050674 25.782299655883
8.603400000000001 0.0183982479445 -4.714536827915 0.9998165005360 -79.46542521251 0.9998165005360 -79.46542521251 0.0184047437584 25.863394856775
8.603600000000000 0.0182799471827 -4.814512713272 0.9998183044051 -79.47426048500 0.9998183044051 -79.47426048500 0.0182866606670 25.948398206036
8.603800000000000 0.0181577270366 -4.918983587587 0.9998201468362 -79.48332977976 0.9998201468362 -79.48332977976 0.0181646715370 26.037591742562
8.604000000000001 0.0180313898981 -5.028269490326 0.9998220286783 -79.49264510258 0.9998220286783 -79.49264510258 0.0180385798837 26.131285011712
8.604200000000001 0.0179007247632 -5.142721666069 0.9998239507520 -79.50221929425 0.9998239507520 -79.50221929425 0.0179081759527 26.229818578091
8.604400000000000 0.0177655058005 -5.262726694021 0.9998259138336 -79.51206612157 0.9998259138335 -79.51206612157 0.0177732353101 26.333568241808
8.604600000000001 0.0176254917753 -5.388710614355 0.9998279186926 -79.52220031988 0.9998279186926 -79.52220031988 0.0176335182563 26.442948918101
8.604800000000001 0.0174804238767 -5.521144547398 0.9998299660011 -79.53263772915 0.9998299660011 -79.53263772915 0.0174887677210 26.558420814200
8.605000000000000 0.0173300248178 -5.660550486256 0.9998320563863 -79.54339535897 0.9998320563863 -79.54339535897 0.0173387083496 26.680494890475
8.605200000000000 0.0171739965660 -5.807508803444 0.9998341903852 -79.55449153478 0.9998341903852 -79.55449153478 0.0171830442830 26.809740655480
8.605400000000001 0.0170120193807 -5.962665742093 0.9998363684116 -79.56594596970 0.9998363684116 -79.56594596970 0.0170214582288 26.946793883021
8.605600000000001 0.0168437481590 -6.126744728007 0.9998385907605 -79.57777999885 0.9998385907605 -79.57777999885 0.0168536078483 27.092367919741
8.605800000000000 0.0166688120816 -6.300556002101 0.9998408575170 -79.59001662092 0.9998408575170 -79.59001662092 0.0166791254668 27.247263961756
8.606000000000000 0.0164868102746 -6.485012342270 0.9998431686120 -79.60268078206 0.9998431686120 -79.60268078206 0.0164976137638 27.412386476232
8.606200000000001 0.0162973101958 -6.681144051378 0.9998455236845 -79.61579950123 0.9998455236845 -79.61579950123 0.0163086442699 27.588759200816
8.606400000000001 0.0160998437490 -6.890119571224 0.9998479220795 -79.62940213915 0.9998479220795 -79.62940213915 0.0161117535484 27.777545921097
8.606600000000000 0.0158939040539 -7.113269026155 0.9998503627732 -79.64352063598 0.9998503627732 -79.64352063598 0.0159064400757 27.980074721421
8.606800000000000 0.0156789413722 -7.352113321185 0.9998528442841 -79.65818980995 0.9998528442841 -79.65818980995 0.0156921603062 28.197867968229
8.607000000000001 0.0154543590067 -7.608399353502 0.9998553645918 -79.67344767173 0.9998553645918 -79.67344767173 0.0154683247220 28.432678464004
8.607200000000001 0.0152195077708 -7.884144258300 0.9998579209896 -79.68933584066 0.9998579209896 -79.68933584066 0.0152342925292 28.686535244858
8.607400000000000 0.0149736815912 -8.181688872983 0.9998605100518 -79.70589991892 0.9998605100518 -79.70589991892 0.0149893674383 28.961797962312
8.607600000000000 0.0147161102982 -8.503766278595 0.9998631273246 -79.72319005879 0.9998631273246 -79.72319005879 0.0147327908604 29.261228570066
8.607800000000001 0.0144459545973 -8.853585556002 0.9998657671834 -79.74126144270 0.9998657671834 -79.74126144270 0.0144637372249 29.588077391843
8.608000000000001 0.0141622969667 -9.234943028196 0.9998684226673 -79.76017505971 0.9998684226673 -79.76017505971 0.0141813053480 29.946197243715
8.608200000000000 0.0138641359049 -9.652358697662 0.9998710850462 -79.77999834854 0.9998710850462 -79.77999834854 0.0138845133859 30.340185345347
8.608400000000001 0.0135503754175 -10.11126055223 0.9998737435097 -79.80080622593 0.9998737435097 -79.80080622593 0.0135722891483 30.775573006824
8.608600000000001 0.0132198189423 -10.61821918817 0.9998763847426 -79.82268198169 0.9998763847427 -79.82268198169 0.0132434650796 31.259067491536
8.608800000000000 0.0128711591414 -11.18126612615 0.9998789923053 -79.84571860773 0.9998789923053 -79.84571860773 0.0128967695655 31.798880481009
8.609000000000000 0.0125029699462 -11.81032067246 0.9998815459545 -79.87002026085 0.9998815459545 -79.87002026085 0.0125308209315 32.405167311363
8.609200000000001 0.0121137028907 -12.51776935466 0.9998840207841 -79.89570385242 0.9998840207841 -79.89570385242 0.0121441264138 33.090622357895
8.609400000000001 0.0117016828185 -13.31927964912 0.9998863860772 -79.92290124797 0.9998863860772 -79.92290124797 0.0117350816143 33.871313637613
8.609600000000000 0.0112651167921 -14.23493929609 0.9998886039783 -79.95176152909 0.9998886039783 -79.95176152909 0.0113019844862 34.767846839696
8.609800000000000 0.0108021096183 -15.29091269858 0.9998906276099 -79.98245418469 0.9998906276098 -79.98245418469 0.0108430583201 35.807052474977
8.610000000000001 0.0103107128574 -16.52185621670 0.9998923989465 -80.01517236740 0.9998923989465 -80.01517236740 0.0103565111505 37.024430484792
8.610200000000001 0.0097890083516 -17.97457200663 0.9998938457934 -80.05013746887 0.9998938457934 -80.05013746887 0.0098406348558 38.467825690081
8.610400000000000 0.0092352755558 -19.71361697471 0.9998948780555 -80.08760431095 0.9998948780556 -80.08760431095 0.0092939952698 40.203016353242
8.610600000000000 0.0086482969586 -21.83016280137 0.9998953827647 -80.12786783882 0.9998953827647 -80.12786783882 0.0087157716310 42.322434799564
8.610800000000001 0.0080279341177 -24.45627671413 0.9998952175464 -80.17127108592 0.9998952175464 -80.17127108592 0.0081063826121 44.958984404889
8.611000000000001 0.0073762043377 -27.78842583754 0.9998942019519 -80.21821580622 0.9998942019519 -80.21821580622 0.0074686333015 48.308230162644
8.611200000000000 0.0066993733723 -32.12610316679 0.9998921057706 -80.26917507309 0.9998921057706 -80.26917507309 0.0068098912382 52.663512776317
8.611400000000000 0.0060120495153 -37.93279065240 0.9998886330299 -80.32471037078 0.9998886330299 -80.32471037078 0.0061462178969 58.467877699138
8.611600000000001 0.0053452463275 -45.91494507704 0.9998834002191 -80.38549276586 0.9998834002191 -80.38549276586 0.0055101670110 66.371578678119
8.611800000000001 0.0047611815974 -57.04200695567 0.9998759058388 -80.45233133362 0.9998759058387 -80.45233133362 0.0049642046643 77.212918351874
8.612000000000000 0.0043734765617 -72.17458444935 0.9998654868241 -80.52621055268 0.9998654868241 -80.52621055268 0.0046170059032 91.637994251932
8.612200000000001 0.0043471781318 -90.74532183630 0.9998512568205 -80.60834035284 0.9998512568205 -80.60834035285 0.0046195666782 109.00650240399
8.612400000000001 0.0048273648264 -109.6356154868 0.9998320154044 -80.70022438426 0.9998320154044 -80.70022438427 0.0051035692433 126.62659335238
8.612600000000000 0.0058486421689 -125.4389649605 0.9998061115530 -80.80375552254 0.9998061115530 -80.80375552254 0.0061082195428 141.57939726120
8.612800000000000 0.0073668460482 -137.2099592529 0.9997712374510 -80.92134985166 0.9997712374510 -80.92134985166 0.0076034447155 152.90208024383
8.613000000000001 0.0093471135302 -145.7022915873 0.9997241041316 -81.05614061025 0.9997241041316 -81.05614061025 0.0095629497025 161.12476090595
8.613200000000001 0.0118005303197 -151.9151146812 0.9996599198311 -81.21226614221 0.9996599198311 -81.21226614221 0.0120003584126 167.09242689172
8.613400000000000 0.0147875207748 -156.6045890509 0.9995715236556 -81.39530693634 0.9995715236556 -81.39530693634 0.0149761698426 171.48499457272
8.613600000000000 0.0184205464334 -160.2754345565 0.9994478891100 -81.61297352932 0.9994478891100 -81.61297352932 0.0186023665083 174.76627303879
8.613800000000001 0.0228772573340 -163.2607202042 0.9992714256420 -81.87622767196 0.9992714256420 -81.87622767196 0.0230562188040 177.23681849564
8.614000000000001 0.0284301503387 -165.7888935730 0.9990128538000 -82.20119639873 0.9990128538000 -82.20119639873 0.0286101429927 179.08601434716
8.614200000000000 0.0355043274302 -168.0296058885 0.9986208312265 -82.61261133629 0.9986208312265 -82.61261133629 0.0356895693684 -179.5744295152
8.614400000000000 0.0447909973905 -170.1270779692 0.9979992719983 -83.15041336033 0.9979992719984 -83.15041336033 0.0449866194442 -178.6945436201
8.614600000000001 0.0574851494300 -172.2321587960 0.9969526370333 -83.88351116776 0.9969526370333 -83.88351116776 0.0576981750389 -178.2878354431
8.614800000000001 0.0758357226617 -174.5505031439 0.9950358464641 -84.94166638911 0.9950358464641 -84.94166638911 0.0760770029469 -178.4605689489
8.615000000000000 0.1046105450344 -177.4524671759 0.9910629250025 -86.60082812737 0.9910629250025 -86.60082812737 0.1048992714522 -179.5096482465
8.615200000000000 0.1558617588077 178.17826490199 0.9810197538938 -89.56391724440 0.9810197538938 -89.56391724440 0.1562383553277 177.73655693877
8.615400000000001 0.2698330173520 169.34300940717 0.9444601261701 -96.23167334388 0.9444601261702 -96.23167334388 0.2704084247130 170.32174206155
8.615600000000001 0.6317860960199 138.16727377953 0.6553156104857 -118.8326673991 0.6553156104858 -118.8326673991 0.6329837609237 140.40438507602
8.615800000000000 0.5928693265148 52.677443750360 0.7165856183398 -44.73676040922 0.7165856183402 -44.73676040922 0.5938749375523 56.036878764258
8.616000000000000 0.2954955451836 27.483388604518 0.9394174951120 -63.43251985419 0.9394174951119 -63.43251985419 0.2959466464787 31.849863922341
8.616200000000001 0.1963098742342 19.870532503992 0.9743790430764 -69.28669675900 0.9743790430765 -69.28669675900 0.1965810348208 25.145548027729
8.616400000000001 0.1497330218188 16.182396662458 0.9854991853678 -71.99811214509 0.9854991853678 -71.99811214509 0.1499210690096 22.281149734401
8.616600000000000 0.1229550689254 13.942852013995 0.9904338477995 -73.54986603031 0.9904338477994 -73.54986603030 0.1230960902425 20.791827019885
8.616800000000001 0.1056190502779 12.399821808425 0.9930713566821 -74.55277019801 0.9930713566821 -74.55277019801 0.1057301304210 19.934884895805
8.617000000000001 0.0934955801146 11.249181679590 0.9946580778541 -75.25381703257 0.9946580778541 -75.25381703257 0.0935860845366 19.414056634151
8.617200000000000 0.0845469251633 10.344212587569 0.9956939470066 -75.77140808176 0.9956939470066 -75.77140808176 0.0846225155461 19.089255475943
8.617400000000000 0.0776730063645 9.6050853645830 0.9964118703543 -76.16927218039 0.9964118703542 -76.16927218039 0.0777373528288 18.886285750165
8.617600000000001 0.0722285498233 8.9843823285655 0.9969326510198 -76.48471883288 0.9969326510198 -76.48471883288 0.0722841592897 18.762545807209
8.617800000000001 0.0678103746308 8.4519847733980 0.9973242313564 -76.74102916471 0.9973242313564 -76.74102916471 0.0678590301838 18.692057387736
8.618000000000000 0.0641537095418 7.9877244639996 0.9976273175805 -76.95347772143 0.9976273175805 -76.95347772143 0.0641967213165 18.658232001940
8.618200000000000 0.0610775520117 7.5775057280216 0.9978675709128 -77.13249932370 0.9978675709128 -77.13249932370 0.0611159084262 18.650084145525
8.618400000000001 0.0584539965422 7.2111245790767 0.9980618575675 -77.28546397880 0.9980618575675 -77.28546397880 0.0584884599665 18.660124534148
8.618600000000001 0.0561901135639 6.8809740745609 0.9982216569753 -77.41772429521 0.9982216569753 -77.41772429521 0.0562212831288 18.683125525508
8.618800000000000 0.0542167563160 6.5812383200641 0.9983550183946 -77.53326186516 0.9983550183946 -77.53326186516 0.0542451104380 18.715367129615
8.619000000000000 0.0524814261981 6.3073770428518 0.9984677305367 -77.63509898212 0.9984677305367 -77.63509898212 0.0525073522696 18.754160340613
8.619200000000001 0.0509435424801 6.0557787398059 0.9985640502738 -77.72557145219 0.9985640502738 -77.72557145219 0.0509673580136 18.797536312611
8.619400000000001 0.0495712470382 5.8235251657570 0.9986471690093 -77.80651278776 0.9986471690093 -77.80651278776 0.0495932150972 18.844038698976
8.619600000000000 0.0483391809670 5.6082249610262 0.9987195208549 -77.87938232756 0.9987195208548 -77.87938232756 0.0483595215999 18.892581539315
8.619800000000000 0.0472269083235 5.4078943341578 0.9987829908661 -77.94535603662 0.9987829908661 -77.94535603662 0.0472458071909 18.942350329376
8.620000000000001 0.0462177768616 5.2208695875174 0.9988390589765 -78.00539211602 0.9988390589765 -78.00539211602 0.0462353918424 18.992731920059
8.620200000000001 0.0452980827293 5.0457417866806 0.9988889016846 -78.06027909839 0.9988889016846 -78.06027909839 0.0453145489845 19.043263558248
8.620400000000000 0.0444564446124 4.8813077897233 0.9989334643389 -78.11067187289 0.9989334643389 -78.11067187289 0.0444718786546 19.093596850616
8.620600000000001 0.0436833325665 4.7265316024860 0.9989735147964 -78.15711880764 0.9989735147964 -78.15711880764 0.0436978353730 19.143469729849
8.620800000000001 0.0429707066885 4.5805155006298 0.9990096821310 -78.20008254104 0.9990096821310 -78.20008254104 0.0429843662817 19.192686807159
8.621000000000000 0.0423117368331 4.4424761959847 0.9990424864116 -78.23995611221 0.9990424864116 -78.23995611221 0.0423246303003 19.241103671567
8.621200000000000 0.0417005819815 4.3117263214072 0.9990723608000 -78.27707565429 0.9990723608000 -78.27707565429 0.0417127771699 19.288615783757
8.621400000000001 0.0411322201788 4.1876597894088 0.9990996687571 -78.31173017971 0.9990996687571 -78.31173017971 0.0411437770431 19.335149044614
8.621600000000001 0.0406023078412 4.0697392241759 0.9991247173488 -78.34416967425 0.9991247173488 -78.34416967425 0.0406132795685 19.380653276396
8.621800000000000 0.0401070698244 3.9574864147661 0.9991477674503 -78.37461142021 0.9991477674503 -78.37461142021 0.0401175037965 19.425097017783
8.622000000000000 0.0396432084145 3.8504735441785 0.9991690422152 -78.40324523339 0.9991690422152 -78.40324523339 0.0396531469682 19.468463195706
8.622200000000001 0.0392078327262 3.7483171890526 0.9991887333302 -78.43023752294 0.9991887333302 -78.43023752294 0.0392173138227 19.510745828877
8.622400000000001 0.0387983943101 3.6506716626707 0.9992070064458 -78.45573499638 0.9992070064458 -78.45573499638 0.0388074520970 19.551947882611
8.622600000000000 0.0384126409982 3.5572248392998 0.9992240053702 -78.47986731458 0.9992240053702 -78.47986731458 0.0384213062630 19.592078724234
8.622800000000000 0.0380485733759 3.4676939453931 0.9992398553688 -78.50274959456 0.9992398553688 -78.50274959456 0.0380568739817 19.631153095123
8.623000000000001 0.0377044103912 3.3818217531249 0.9992546662236 -78.52448438934 0.9992546662236 -78.52448438934 0.0377123715975 19.669189478603
8.623200000000001 0.0373785619810 3.2993742300060 0.9992685343440 -78.54516326130 0.9992685343440 -78.54516326130 0.0373862067504 19.706209102162
8.623400000000000 0.0370696013003 3.2201371907954 0.9992815448333 -78.56486838045 0.9992815448333 -78.56486838045 0.0370769505592 19.742235512630
8.623600000000000 0.0367762471919 3.1439147709634 0.9992937730308 -78.58367353269 0.9992937730308 -78.58367353269 0.0367833200420 19.777293436902
8.623800000000001 0.0364973440784 3.0705271147240 0.9993052858320 -78.60164527629 0.9993052858320 -78.60164527629 0.0365041580051 19.811408744153
8.624000000000001 0.0362318481449 2.9998089280093 0.9993161428372 -78.61884373694 0.9993161428372 -78.61884373694 0.0362384191843 19.844607763846
8.624200000000000 0.0359788130853 2.9316076873840 0.9993263973666 -78.63532342824 0.9993263973666 -78.63532342824 0.0359851559652 19.876917106025
8.624400000000001 0.0357373800597 2.8657827697514 0.9993360971568 -78.65113382870 0.9993360971568 -78.65113382870 0.0357435083395 19.908363353798
8.624600000000001 0.0355067672637 2.8022040430715 0.9993452851429 -78.66631998249 0.9993452851429 -78.66631998249 0.0355126934415 19.938972859818
8.624800000000000 0.0352862612452 2.7407508868765 0.9993540000070 -78.68092299877 0.9993540000070 -78.68092299877 0.0352919968642 19.968771706296
8.625000000000000 0.0350752100244 2.6813114142021 0.9993622766790 -78.69498044753 0.9993622766790 -78.69498044753 0.0350807657648 19.997785503452
8.625200000000001 0.0348730167686 2.6237816687122 0.9993701468000 -78.70852672372 0.9993701468000 -78.70852672372 0.0348784025207 20.026039231408
8.625400000000001 0.0346791334002 2.5680648508903 0.9993776390501 -78.72159341478 0.9993776390501 -78.72159341478 0.0346843583483 20.053557411273
8.625600000000000 0.0344930561727 2.5140706538024 0.9993847795655 -78.73420955580 0.9993847795655 -78.73420955580 0.0344981288441 20.080363804698
8.625800000000000 0.0343143216210 2.4617149146489 0.9993915921391 -78.74640186203 0.9993915921391 -78.74640186203 0.0343192499456 20.106481445437
8.626000000000001 0.0341425017364 2.4109189039911 0.9993980984713 -78.75819500657 0.9993980984713 -78.75819500657 0.0341472931095 20.131932822845
8.626200000000001 0.0339772013360 2.3616089511595 0.9994043184420 -78.76961177218 0.9994043184420 -78.76961177218 0.0339818626541 20.156739613827
8.626400000000000 0.0338180548415 2.3137160517378 0.9994102702701 -78.78067323642 0.9994102702701 -78.78067323642 0.0338225925432 20.180922767986
8.626600000000000 0.0336647231799 2.2671754275393 0.9994159706730 -78.79139895006 0.9994159706730 -78.79139895006 0.0336691432889 20.204502613059
8.626800000000001 0.0335168921603 2.2219263195750 0.9994214350440 -78.80180703066 0.9994214350440 -78.80180703066 0.0335212003094 20.227498637951
8.627000000000001 0.0333742695382 2.1779116187178 0.9994266775219 -78.81191433116 0.9994266775219 -78.81191433116 0.0333784710135 20.249929778390
8.627200000000000 0.0332365832903 2.1350774743777 0.9994317112010 -78.82173653992 0.9994317112010 -78.82173653992 0.0332406830457 20.271814232256
8.627400000000000 0.0331035802359 2.0933732755379 0.9994365481491 -78.83128825937 0.9994365481491 -78.83128825937 0.0331075829249 20.293169533172
8.627600000000001 0.0329750241460 2.0527512734647 0.9994411995419 -78.84058311529 0.9994411995419 -78.84058311529 0.0329789341420 20.314012573627
8.627800000000001 0.0328506942139 2.0131663633227 0.9994456757348 -78.84963384477 0.9994456757348 -78.84963384477 0.0328545156331 20.334359670854
8.628000000000000 0.0327303843635 1.9745760443344 0.9994499863279 -78.85845233593 0.9994499863279 -78.85845233593 0.0327341210823 20.354226463039
8.628200000000001 0.0326139012952 1.9369400127158 0.9994541402560 -78.86704974072 0.9994541402560 -78.86704974072 0.0326175569671 20.373628080595
8.628400000000001 0.0325010640962 1.9002201897176 0.9994581458286 -78.87543649715 0.9994581458286 -78.87543649715 0.0325046421662 20.392579042533
8.628600000000000 0.0323917031126 1.8643805795925 0.9994620107562 -78.88362239405 0.9994620107562 -78.88362239405 0.0323952068392 20.411093366920
8.628800000000000 0.0322856588644 1.8293869395346 0.9994657422765 -78.89161663422 0.9994657422766 -78.89161663422 0.0322890913213 20.429184511716
8.629000000000001 0.0321827817622 1.7952069376923 0.9994693471077 -78.89942784998 0.9994693471077 -78.89942784998 0.0321861458585 20.446865427552
8.629200000000001 0.0320829306877 1.7618097561266 0.9994728315477 -78.90706418548 0.9994728315477 -78.90706418548 0.0320862291772 20.464148646282
8.629400000000000 0.0319859730930 1.7291662233315 0.9994762014801 -78.91453329067 0.9994762014801 -78.91453329067 0.0319892085843 20.481046168104
8.629600000000000 0.0318917839427 1.6972485690043 0.9994794624240 -78.92184238246 0.9994794624240 -78.92184238246 0.0318949589066 20.497569561903
8.629800000000001 0.0318002451869 1.6660303708843 0.9994826195445 -78.92899827488 0.9994826195445 -78.92899827488 0.0318033619694 20.513730012684
8.630000000000001 0.0317112455494 1.6354865222788 0.9994856776909 -78.93600739144 0.9994856776909 -78.93600739144 0.0317143063770 20.529538247132
8.630200000000000 0.0316246798296 1.6055930892061 0.9994886414227 -78.94287580527 0.9994886414227 -78.94287580527 0.0316276868167 20.545004606701
8.630400000000000 0.0315404484908 1.5763272550622 0.9994915150238 -78.94960926287 0.9994915150238 -78.94960926287 0.0315434036475 20.560139076677
8.630600000000001 0.0314584573879 1.5476672802663 0.9994943025234 -78.95621319981 0.9994943025234 -78.95621319981 0.0314613626267 20.574951270563
8.630800000000001 0.0313786174351 1.5195924238912 0.9994970077268 -78.96269275989 0.9994970077268 -78.96269275989 0.0313814745733 20.589450417343
8.631000000000000 0.0313008440950 1.4920828874151 0.9994996342056 -78.96905282447 0.9994996342056 -78.96905282447 0.0313036548655 20.603645469863
8.631200000000000 0.0312250572429 1.4651197665399 0.9995021853332 -78.97529802040 0.9995021853332 -78.97529802040 0.0312278232981 20.617545040865
8.631400000000001 0.0311511807965 1.4386849602815 0.9995046643076 -78.98143274144 0.9995046643076 -78.98143274144 0.0311539037093 20.631157423969
8.631600000000001 0.0310791425815 1.4127612209462 0.9995070741304 -78.98746115574 0.9995070741304 -78.98746115574 0.0310818238552 20.644490634349
8.631800000000000 0.0310088739776 1.3873319928535 0.9995094176648 -78.99338722664 0.9995094176648 -78.99338722664 0.0310115150427 20.657552368999
8.632000000000000 0.0309403096273 1.3623814527927 0.9995116975936 -78.99921472896 0.9995116975936 -78.99921472896 0.0309429118546 20.670350132021
8.632200000000001 0.0308733875369 1.3378944612925 0.9995139164781 -79.00494724365 0.9995139164781 -79.00494724365 0.0308759522331 20.682891077033
8.632400000000001 0.0308080485072 1.3138564881566 0.9995160767341 -79.01058819031 0.9995160767341 -79.01058819031 0.0308105769231 20.695182178194
8.632600000000000 0.0307442362370 1.2902536272465 0.9995181806552 -79.01614082133 0.9995181806552 -79.01614082133 0.0307467295692 20.707230139756
8.632800000000001 0.0306818970146 1.2670725094305 0.9995202304288 -79.02160823975 0.9995202304288 -79.02160823975 0.0306843564055 20.719041429514
8.633000000000001 0.0306209796601 1.2443003637681 0.9995222281101 -79.02699340232 0.9995222281101 -79.02699340232 0.0306234062068 20.730622322046
8.633200000000000 0.0305614353194 1.2219248925555 0.9995241756708 -79.03229913174 0.9995241756708 -79.03229913174 0.0305638300707 20.741978850595
8.633400000000000 0.0305032172590 1.1999342676318 0.9995260749830 -79.03752812826 0.9995260749830 -79.03752812826 0.0305055812196 20.753116874923
8.633600000000001 0.0304462809676 1.1783171891582 0.9995279278144 -79.04268296378 0.9995279278144 -79.04268296378 0.0304486151028 20.764042047342
8.633800000000001 0.0303905838441 1.1570627507116 0.9995297358635 -79.04776610006 0.9995297358635 -79.04776610006 0.0303928890781 20.774759819939
8.634000000000000 0.0303360851342 1.1361604772551 0.9995315007405 -79.05277989221 0.9995315007405 -79.05277989221 0.0303383623541 20.785275484332
8.634200000000000 0.0302827457576 1.1156002633197 0.9995332239828 -79.05772659869 0.9995332239828 -79.05772659869 0.0302849958156 20.795594179341
8.634400000000001 0.0302305285680 1.0953724664865 0.9995349070526 -79.06260836632 0.9995349070526 -79.06260836632 0.0302327522816 20.805720809893
8.634600000000001 0.0301793977798 1.0754677478196 0.9995365513439 -79.06742726332 0.9995365513439 -79.06742726332 0.0301815959360 20.815660185109
8.634800000000000 0.0301293190859 1.0558770837237 0.9995381582003 -79.07218527269 0.9995381582003 -79.07218527269 0.0301314924389 20.825416941907
8.635000000000000 0.0300802597360 1.0365918505288 0.9995397288896 -79.07688428738 0.9995397288896 -79.07688428738 0.0300824090120 20.834995560091
8.635200000000001 0.0300321882601 1.0176037100243 0.9995412646283 -79.08152612647 0.9995412646283 -79.08152612647 0.0300343141580 20.844400387490
8.635400000000001 0.0299850744013 0.9989046057441 0.9995427665800 -79.08611253901 0.9995427665800 -79.08611253901 0.0299871775941 20.853635652188
8.635600000000000 0.0299388892540 0.9804867943742 0.9995442358640 -79.09064519605 0.9995442358640 -79.09064519605 0.0299409703870 20.862705400645
8.635800000000000 0.0298936049830 0.9623428142841 0.9995456735360 -79.09512570670 0.9995456735360 -79.09512570670 0.0298956646807 20.871613605598
8.636000000000001 0.0298491948168 0.9444654206776 0.9995470806248 -79.09955561880 0.9995470806248 -79.09955561880 0.0298512336784 20.880364093950
8.636200000000001 0.0298056330916 0.9268476651299 0.9995484581022 -79.10393641610 0.9995484581022 -79.10393641610 0.0298076516956 20.888960582524
8.636400000000000 0.0297628951279 0.9094828263064 0.9995498069047 -79.10826952553 0.9995498069047 -79.10826952554 0.0297648940320 20.897406668510
8.636600000000001 0.0297209571653 0.8923644016919 0.9995511279316 -79.11255632098 0.9995511279316 -79.11255632098 0.0297229369066 20.905705844327
8.636800000000001 0.0296797963201 0.8754861082229 0.9995524220424 -79.11679812562 0.9995524220424 -79.11679812562 0.0296817574173 20.913861511290
8.637000000000000 0.0296393906715 0.8588419048600 0.9995536900610 -79.12099620705 0.9995536900610 -79.12099620705 0.0296413336251 20.921876940816
8.637200000000000 0.0295997190009 0.8424259061277 0.9995549327849 -79.12515179234 0.9995549327849 -79.12515179234 0.0296016442929 20.929755328490
8.637400000000001 0.0295607609140 0.8262324494362 0.9995561509712 -79.12926606084 0.9995561509712 -79.12926606084 0.0295626690112 20.937499779842
8.637600000000001 0.0295224967926 0.8102560602050 0.9995573453506 -79.13334014715 0.9995573453506 -79.13334014715 0.0295243881454 20.945113294482
8.637800000000000 0.0294849076892 0.7944914218411 0.9995585166293 -79.13737514710 0.9995585166293 -79.13737514710 0.0294867827319 20.952598789548
8.638000000000000 0.0294479753376 0.7789333998110 0.9995596654811 -79.14137211715 0.9995596654811 -79.14137211715 0.0294498344908 20.959959107170
8.638200000000001 0.0294116821231 0.7635770171034 0.9995607925574 -79.14533207612 0.9995607925574 -79.14533207612 0.0294135257926 20.967197001539
8.638400000000001 0.0293760110653 0.7484174696069 0.9995618984792 -79.14925600615 0.9995618984792 -79.14925600615 0.0293778396448 20.974315155447
8.638600000000000 0.0293409458032 0.7334500954863 0.9995629838523 -79.15314485367 0.9995629838523 -79.15314485367 0.0293427596718 20.981316152631
8.638800000000000 0.0293064704710 0.7186703724807 0.9995640492525 -79.15699953638 0.9995640492525 -79.15699953638 0.0293082699971 20.988202539815
8.639000000000001 0.0292725697913 0.7040739165639 0.9995650952412 -79.16082093810 0.9995650952412 -79.16082093810 0.0292743553302 20.994976767166
8.639200000000001 0.0292392290322 0.6896564942284 0.9995661223553 -79.16460991105 0.9995661223553 -79.16460991105 0.0292410009277 21.001641216403
8.639400000000000 0.0292064338736 0.6754139791742 0.9995671311101 -79.16836728364 0.9995671311101 -79.16836728364 0.0292081924599 21.008198233996
8.639600000000000 0.0291741705655 0.6613423814084 0.9995681220103 -79.17209385142 0.9995681220103 -79.17209385142 0.0291759161644 21.014650059967
8.639800000000001 0.0291424257536 0.6474378295154 0.9995690955339 -79.17579038697 0.9995690955339 -79.17579038697 0.0291441586783 21.020998908036
8.640000000000001 0.0291111865790 0.6336965807029 0.9995700521436 -79.17945763427 0.9995700521436 -79.17945763427 0.0291129071330 21.027246912623
8.640200000000000 0.0290804405587 0.6201149786271 0.9995709922915 -79.18309631559 0.9995709922915 -79.18309631559 0.0290821490355 21.033396153910