! Sonnet Data File
! From: emgraph Version : 16.52
! From Project: 171117_Xmon_fullysym
! Data is De-embedded 
! Data File Written: 11/26/2017 21:44:48
!< HDATE 11/26/2017 17:24:49
!< MDATE 11/26/2017 17:24:49
!< PARAMS
!< Lj = 11.0
!< Gap = 1.0
!< Pwid = 2000.0
!< Airgap = 6.0
!< Width = 10.0
!< Lj1 = 11.8
!< END PARAMS
# GHZ S MA R 50.90000
8.600000000000001 0.0261824407230 -0.062279424734 0.9996538687513 -78.97854328640 0.9996538687513 -78.97854328668 0.0261833747722 22.115183772565
!< P1 F=8.6 Eeff=(6.44845572 -2.9799e-5) Z0=(50.9087207 1.17006e-4) R=0.0 C=0.0 
!< P2 F=8.6 Eeff=(6.44845572 -2.9799e-5) Z0=(50.9087207 1.17006e-4) R=0.0 C=0.0 
8.600200000000001 0.0261815317394 -0.065007986478 0.9996538924800 -78.98045127013 0.9996538924800 -78.98045127013 0.0261824658925 22.114096850472
8.600400000000000 0.0261806224429 -0.067736874283 0.9996539161886 -78.98235927388 0.9996539161886 -78.98235927388 0.0261815566805 22.113010183831
8.600600000000000 0.0261797127957 -0.070466066103 0.9996539399050 -78.98426729767 0.9996539399050 -78.98426729767 0.0261806471182 22.111923784230
8.600800000000001 0.0261788027926 -0.073195564354 0.9996539636291 -78.98617534183 0.9996539636291 -78.98617534183 0.0261797372002 22.110837653869
8.601000000000001 0.0261778924252 -0.075925373194 0.9996539873612 -78.98808340682 0.9996539873612 -78.98808340682 0.0261788269183 22.109751795572
8.601200000000000 0.0261769816873 -0.078655495611 0.9996540111016 -78.98999149303 0.9996540111016 -78.98999149303 0.0261779162661 22.108666211805
8.601400000000000 0.0261760705703 -0.081385935551 0.9996540348503 -78.99189960094 0.9996540348503 -78.99189960094 0.0261770052352 22.107580905856
8.601600000000001 0.0261751590671 -0.084116696816 0.9996540586076 -78.99380773097 0.9996540586076 -78.99380773097 0.0261760938183 22.106495880091
8.601800000000001 0.0261742471708 -0.086847782637 0.9996540823737 -78.99571588353 0.9996540823737 -78.99571588353 0.0261751820088 22.105411137058
8.602000000000000 0.0261733348726 -0.089579197286 0.9996541061488 -78.99762405914 0.9996541061488 -78.99762405914 0.0261742697974 22.104326680223
8.602200000000000 0.0261724221673 -0.092310943152 0.9996541299330 -78.99953225808 0.9996541299330 -78.99953225808 0.0261733571795 22.103242511380
8.602400000000001 0.0261715090450 -0.095043025342 0.9996541537266 -79.00144048095 0.9996541537266 -79.00144048095 0.0261724441447 22.102158634203
8.602600000000001 0.0261705955006 -0.097775446133 0.9996541775298 -79.00334872804 0.9996541775298 -79.00334872804 0.0261715306883 22.101075050577
8.602800000000000 0.0261696815254 -0.100508209854 0.9996542013427 -79.00525699985 0.9996542013427 -79.00525699985 0.0261706168012 22.099991763798
8.603000000000000 0.0261687671124 -0.103241319882 0.9996542251656 -79.00716529680 0.9996542251656 -79.00716529680 0.0261697024768 22.098908776341
8.603200000000001 0.0261678522537 -0.105974780089 0.9996542489986 -79.00907361936 0.9996542489986 -79.00907361936 0.0261687877069 22.097826091280
8.603400000000001 0.0261669369424 -0.108708593692 0.9996542728418 -79.01098196791 0.9996542728418 -79.01098196791 0.0261678724848 22.096743711256
8.603600000000000 0.0261660211708 -0.111442764654 0.9996542966956 -79.01289034291 0.9996542966956 -79.01289034291 0.0261669568026 22.095661638914
8.603800000000000 0.0261651049311 -0.114177296866 0.9996543205602 -79.01479874482 0.9996543205602 -79.01479874482 0.0261660406527 22.094579877197
8.604000000000001 0.0261641882166 -0.116912193329 0.9996543444356 -79.01670717403 0.9996543444356 -79.01670717403 0.0261651240282 22.093498428858
8.604200000000001 0.0261632710205 -0.119647457581 0.9996543683221 -79.01861563093 0.9996543683221 -79.01861563093 0.0261642069225 22.092417296110
8.604400000000000 0.0261623533328 -0.122383094444 0.9996543922199 -79.02052411611 0.9996543922199 -79.02052411611 0.0261632893255 22.091336482916
8.604600000000001 0.0261614351494 -0.125119105893 0.9996544161292 -79.02243262981 0.9996544161292 -79.02243262981 0.0261623712331 22.090255990786
8.604800000000001 0.0261605164594 -0.127855497408 0.9996544400502 -79.02434117266 0.9996544400502 -79.02434117266 0.0261614526344 22.089175823582
8.605000000000000 0.0261595972585 -0.130592271014 0.9996544639830 -79.02624974493 0.9996544639830 -79.02624974493 0.0261605335252 22.088095983180
8.605200000000000 0.0261586775367 -0.133329431510 0.9996544879278 -79.02815834718 0.9996544879278 -79.02815834718 0.0261596138953 22.087016473291
8.605400000000001 0.0261577572887 -0.136066981725 0.9996545118850 -79.03006697974 0.9996545118850 -79.03006697974 0.0261586937396 22.085937295840
8.605600000000001 0.0261568365045 -0.138804926550 0.9996545358546 -79.03197564318 0.9996545358546 -79.03197564318 0.0261577730479 22.084858454467
8.605800000000000 0.0261559151795 -0.141543267980 0.9996545598368 -79.03388433777 0.9996545598368 -79.03388433777 0.0261568518158 22.083779951177
8.606000000000000 0.0261549933033 -0.144282011484 0.9996545838318 -79.03579306413 0.9996545838318 -79.03579306413 0.0261559300328 22.082701789673
8.606200000000001 0.0261540708704 -0.147021159570 0.9996546078399 -79.03770182256 0.9996546078399 -79.03770182256 0.0261550076934 22.081623972070
8.606400000000001 0.0261531478727 -0.149760716220 0.9996546318612 -79.03961061355 0.9996546318612 -79.03961061355 0.0261540847896 22.080546501452
8.606600000000000 0.0261522243028 -0.152500685287 0.9996546558960 -79.04151943753 0.9996546558960 -79.04151943753 0.0261531613138 22.079469380558
8.606800000000000 0.0261513001525 -0.155241070485 0.9996546799443 -79.04342829498 0.9996546799443 -79.04342829498 0.0261522372581 22.078392612607
8.607000000000001 0.0261503754154 -0.157981875310 0.9996547040064 -79.04533718627 0.9996547040064 -79.04533718627 0.0261513126157 22.077316199957
8.607200000000001 0.0261494500828 -0.160723103820 0.9996547280826 -79.04724611190 0.9996547280826 -79.04724611190 0.0261503873783 22.076240145814
8.607400000000000 0.0261485241483 -0.163464759308 0.9996547521729 -79.04915507226 0.9996547521729 -79.04915507226 0.0261494615393 22.075164452691
8.607600000000000 0.0261475976035 -0.166206845901 0.9996547762776 -79.05106406784 0.9996547762776 -79.05106406784 0.0261485350902 22.074089123774
8.607800000000001 0.0261466704415 -0.168949367088 0.9996548003970 -79.05297309903 0.9996548003970 -79.05297309903 0.0261476080243 22.073014161597
8.608000000000001 0.0261457426534 -0.171692327145 0.9996548245311 -79.05488216636 0.9996548245311 -79.05488216636 0.0261466803326 22.071939569626
8.608200000000000 0.0261448142334 -0.174435729072 0.9996548486802 -79.05679127017 0.9996548486802 -79.05679127017 0.0261457520094 22.070865349973
8.608400000000001 0.0261438851728 -0.177179577005 0.9996548728444 -79.05870041096 0.9996548728444 -79.05870041096 0.0261448230458 22.069791506098
8.608600000000001 0.0261429554644 -0.179923874801 0.9996548970241 -79.06060958916 0.9996548970241 -79.06060958916 0.0261438934348 22.068718040493
8.608800000000000 0.0261420251001 -0.182668626227 0.9996549212193 -79.06251880523 0.9996549212192 -79.06251880523 0.0261429631682 22.067644956531
8.609000000000000 0.0261410940726 -0.185413834955 0.9996549454302 -79.06442805961 0.9996549454302 -79.06442805961 0.0261420322388 22.066572256793
8.609200000000001 0.0261401623748 -0.188159504734 0.9996549696571 -79.06633735272 0.9996549696571 -79.06633735272 0.0261411006393 22.065499944031
8.609400000000001 0.0261392299978 -0.190905639782 0.9996549939003 -79.06824668506 0.9996549939003 -79.06824668506 0.0261401683610 22.064428021592
8.609600000000000 0.0261382969359 -0.193652242836 0.9996550181596 -79.07015605697 0.9996550181596 -79.07015605697 0.0261392353982 22.063356491912
8.609800000000000 0.0261373631790 -0.196399319178 0.9996550424356 -79.07206546906 0.9996550424356 -79.07206546906 0.0261383017406 22.062285358521
8.610000000000001 0.0261364287213 -0.199146871450 0.9996550667283 -79.07397492163 0.9996550667283 -79.07397492163 0.0261373673827 22.061214623832
8.610200000000001 0.0261354935552 -0.201894903842 0.9996550910380 -79.07588441517 0.9996550910380 -79.07588441517 0.0261364323165 22.060144290620
8.610400000000000 0.0261345576719 -0.204643420269 0.9996551153648 -79.07779395016 0.9996551153648 -79.07779395016 0.0261354965336 22.059074362430
8.610600000000000 0.0261336210640 -0.207392424764 0.9996551397090 -79.07970352705 0.9996551397090 -79.07970352705 0.0261345600264 22.058004841940
8.610800000000001 0.0261326837241 -0.210141920875 0.9996551640707 -79.08161314626 0.9996551640707 -79.08161314626 0.0261336227875 22.056935732073
8.611000000000001 0.0261317456445 -0.212891912426 0.9996551884501 -79.08352280825 0.9996551884501 -79.08352280825 0.0261326848093 22.055867035789
8.611200000000000 0.0261308068170 -0.215642403713 0.9996552128475 -79.08543251349 0.9996552128475 -79.08543251349 0.0261317460835 22.054798756130
8.611400000000000 0.0261298672345 -0.218393398096 0.9996552372630 -79.08734226241 0.9996552372630 -79.08734226241 0.0261308066030 22.053730895928
8.611600000000001 0.0261289268894 -0.221144899347 0.9996552616968 -79.08925205544 0.9996552616968 -79.08925205544 0.0261298663603 22.052663458209
8.611800000000001 0.0261279857732 -0.223896912002 0.9996552861492 -79.09116189308 0.9996552861492 -79.09116189308 0.0261289253468 22.051596445929
8.612000000000000 0.0261270438783 -0.226649439565 0.9996553106203 -79.09307177579 0.9996553106203 -79.09307177579 0.0261279835549 22.050529862432
8.612200000000001 0.0261261011967 -0.229402486022 0.9996553351103 -79.09498170401 0.9996553351103 -79.09498170401 0.0261270409767 22.049463710600
8.612400000000001 0.0261251577213 -0.232156055344 0.9996553596195 -79.09689167817 0.9996553596195 -79.09689167817 0.0261260976051 22.048397992995
8.612600000000000 0.0261242134446 -0.234910150959 0.9996553841480 -79.09880169872 0.9996553841480 -79.09880169872 0.0261251534324 22.047332712807
8.612800000000000 0.0261232683573 -0.237664777601 0.9996554086960 -79.10071176618 0.9996554086960 -79.10071176618 0.0261242084495 22.046267873481
8.613000000000001 0.0261223224535 -0.240419938321 0.9996554332637 -79.10262188091 0.9996554332637 -79.10262188091 0.0261232626504 22.045203477326
8.613200000000001 0.0261213757235 -0.243175637930 0.9996554578515 -79.10453204347 0.9996554578515 -79.10453204347 0.0261223160256 22.044139528068
8.613400000000000 0.0261204281603 -0.245931880032 0.9996554824593 -79.10644225428 0.9996554824593 -79.10644225428 0.0261213685678 22.043076028448
8.613600000000000 0.0261194797564 -0.248688668201 0.9996555070875 -79.10835251376 0.9996555070875 -79.10835251376 0.0261204202697 22.042012981434
8.613800000000001 0.0261185305035 -0.251446006758 0.9996555317362 -79.11026282242 0.9996555317362 -79.11026282242 0.0261194711229 22.040950390288
8.614000000000001 0.0261175803941 -0.254203899576 0.9996555564057 -79.11217318068 0.9996555564057 -79.11217318068 0.0261185211200 22.039888257739
8.614200000000000 0.0261166294198 -0.256962350884 0.9996555810961 -79.11408358903 0.9996555810961 -79.11408358903 0.0261175702525 22.038826587091
8.614400000000000 0.0261156775722 -0.259721364641 0.9996556058076 -79.11599404798 0.9996556058076 -79.11599404798 0.0261166185121 22.037765381806
8.614600000000001 0.0261147248441 -0.262480944778 0.9996556305406 -79.11790455792 0.9996556305406 -79.11790455792 0.0261156658915 22.036704644440
8.614800000000001 0.0261137712284 -0.265241094905 0.9996556552951 -79.11981511930 0.9996556552951 -79.11981511930 0.0261147123836 22.035644377908
8.615000000000000 0.0261128167150 -0.268001819873 0.9996556800713 -79.12172573269 0.9996556800713 -79.12172573269 0.0261137579785 22.034584586116
8.615200000000000 0.0261118612985 -0.270763122565 0.9996557048695 -79.12363639840 0.9996557048695 -79.12363639840 0.0261128026706 22.033525271172
8.615400000000001 0.0261109049689 -0.273525008136 0.9996557296898 -79.12554711703 0.9996557296898 -79.12554711703 0.0261118464499 22.032466436927
8.615600000000001 0.0261099477189 -0.276287480227 0.9996557545326 -79.12745788901 0.9996557545326 -79.12745788901 0.0261108893092 22.031408086308
8.615800000000000 0.0261089895406 -0.279050542736 0.9996557793979 -79.12936871479 0.9996557793979 -79.12936871479 0.0261099312405 22.030350222418
8.616000000000000 0.0261080304260 -0.281814199747 0.9996558042860 -79.13127959484 0.9996558042860 -79.13127959484 0.0261089722359 22.029292848371
8.616200000000001 0.0261070703664 -0.284578455767 0.9996558291971 -79.13319052967 0.9996558291971 -79.13319052967 0.0261080122867 22.028235967506
8.616400000000001 0.0261061093555 -0.287343313957 0.9996558541314 -79.13510151964 0.9996558541314 -79.13510151964 0.0261070513865 22.027179582303
8.616600000000000 0.0261051473826 -0.290108779703 0.9996558790890 -79.13701256540 0.9996558790890 -79.13701256540 0.0261060895246 22.026123697162
8.616800000000001 0.0261041844420 -0.292874855941 0.9996559040703 -79.13892366726 0.9996559040703 -79.13892366726 0.0261051266955 22.025068314063
8.617000000000001 0.0261032205245 -0.295641547370 0.9996559290754 -79.14083482576 0.9996559290754 -79.14083482576 0.0261041628898 22.024013436704
8.617200000000000 0.0261022556221 -0.298408858185 0.9996559541046 -79.14274604138 0.9996559541046 -79.14274604138 0.0261031980995 22.022959068165
8.617400000000000 0.0261012897268 -0.301176792361 0.9996559791580 -79.14465731458 0.9996559791580 -79.14465731458 0.0261022323167 22.021905211620
8.617600000000001 0.0261003228303 -0.303945353762 0.9996560042357 -79.14656864585 0.9996560042357 -79.14656864585 0.0261012655331 22.020851870634
8.617800000000001 0.0260993549244 -0.306714547124 0.9996560293382 -79.14848003566 0.9996560293382 -79.14848003566 0.0261002977405 22.019799048049
8.618000000000000 0.0260983860010 -0.309484376422 0.9996560544655 -79.15039148450 0.9996560544655 -79.15039148450 0.0260993289306 22.018746747161
8.618200000000000 0.0260974160527 -0.312254845154 0.9996560796178 -79.15230299279 0.9996560796178 -79.15230299279 0.0260983590963 22.017694971122
8.618400000000001 0.0260964450697 -0.315025958465 0.9996561047954 -79.15421456110 0.9996561047954 -79.15421456110 0.0260973882277 22.016643723504
8.618600000000001 0.0260954730444 -0.317797720574 0.9996561299986 -79.15612618989 0.9996561299986 -79.15612618989 0.0260964163171 22.015593007323
8.618800000000000 0.0260944999694 -0.320570134857 0.9996561552274 -79.15803787958 0.9996561552274 -79.15803787958 0.0260954433572 22.014542825684
8.619000000000000 0.0260935258354 -0.323343206124 0.9996561804821 -79.15994963071 0.9996561804821 -79.15994963071 0.0260944693387 22.013493182210
8.619200000000001 0.0260925506349 -0.326116938445 0.9996562057629 -79.16186144374 0.9996562057629 -79.16186144374 0.0260934942540 22.012444079782
8.619400000000001 0.0260915743598 -0.328891335756 0.9996562310701 -79.16377331913 0.9996562310701 -79.16377331913 0.0260925180950 22.011395521736
8.619600000000000 0.0260905970011 -0.331666402708 0.9996562564037 -79.16568525740 0.9996562564037 -79.16568525740 0.0260915408529 22.010347511577
8.619800000000000 0.0260896185499 -0.334442143982 0.9996562817642 -79.16759725908 0.9996562817642 -79.16759725908 0.0260905625187 22.009300052692
8.620000000000001 0.0260886389980 -0.337218563564 0.9996563071517 -79.16950932464 0.9996563071517 -79.16950932464 0.0260895830841 22.008253148592
8.620200000000001 0.0260876583387 -0.339995665273 0.9996563325663 -79.17142145449 0.9996563325663 -79.17142145449 0.0260886025425 22.007206801693
8.620400000000000 0.0260866765627 -0.342773453337 0.9996563580083 -79.17333364916 0.9996563580083 -79.17333364916 0.0260876208845 22.006161016030
8.620600000000001 0.0260856936606 -0.345551933011 0.9996563834779 -79.17524590921 0.9996563834779 -79.17524590921 0.0260866381009 22.005115795028
8.620800000000001 0.0260847096254 -0.348331107605 0.9996564089753 -79.17715823503 0.9996564089753 -79.17715823503 0.0260856541846 22.004071141648
8.621000000000000 0.0260837244478 -0.351110982135 0.9996564345007 -79.17907062719 0.9996564345007 -79.17907062719 0.0260846691262 22.003027059548
8.621200000000000 0.0260827381202 -0.353891560540 0.9996564600545 -79.18098308612 0.9996564600545 -79.18098308612 0.0260836829181 22.001983551651
8.621400000000001 0.0260817506331 -0.356672847314 0.9996564856366 -79.18289561236 0.9996564856366 -79.18289561236 0.0260826955512 22.000940621978
8.621600000000001 0.0260807619783 -0.359454847268 0.9996565112475 -79.18480820642 0.9996565112475 -79.18480820642 0.0260817070167 21.999898273511
8.621800000000000 0.0260797721471 -0.362237564421 0.9996565368873 -79.18672086880 0.9996565368873 -79.18672086880 0.0260807173063 21.998856510002
8.622000000000000 0.0260787811322 -0.365021002725 0.9996565625561 -79.18863359992 0.9996565625561 -79.18863359992 0.0260797264125 21.997815334198
8.622200000000001 0.0260777889236 -0.367805167293 0.9996565882543 -79.19054640037 0.9996565882543 -79.19054640037 0.0260787343254 21.996774750228
8.622400000000001 0.0260767955138 -0.370590061957 0.9996566139821 -79.19245927059 0.9996566139821 -79.19245927059 0.0260777410376 21.995734761053
8.622600000000000 0.0260758008931 -0.373375691980 0.9996566397397 -79.19437221114 0.9996566397397 -79.19437221114 0.0260767465392 21.994695370310
8.622800000000000 0.0260748050540 -0.376162060831 0.9996566655271 -79.19628522247 0.9996566655271 -79.19628522247 0.0260757508228 21.993656581512
8.623000000000001 0.0260738079864 -0.378949174083 0.9996566913449 -79.19819830516 0.9996566913449 -79.19819830516 0.0260747538783 21.992618398172
8.623200000000001 0.0260728096839 -0.381737034677 0.9996567171930 -79.20011145959 0.9996567171930 -79.20011145959 0.0260737556993 21.991580823417
8.623400000000000 0.0260718101354 -0.384525648683 0.9996567430718 -79.20202468640 0.9996567430718 -79.20202468640 0.0260727562748 21.990543861207
8.623600000000000 0.0260708093343 -0.387315019478 0.9996567689815 -79.20393798600 0.9996567689815 -79.20393798600 0.0260717555980 21.989507514396
8.623800000000001 0.0260698072699 -0.390105152605 0.9996567949223 -79.20585135900 0.9996567949223 -79.20585135900 0.0260707536582 21.988471787239
8.624000000000001 0.0260688039351 -0.392896051588 0.9996568208944 -79.20776480581 0.9996568208944 -79.20776480581 0.0260697504485 21.987436682701
8.624200000000000 0.0260677993203 -0.395687721358 0.9996568468980 -79.20967832700 0.9996568468980 -79.20967832700 0.0260687459592 21.986402204702
8.624400000000001 0.0260667934167 -0.398480166675 0.9996568729334 -79.21159192309 0.9996568729334 -79.21159192309 0.0260677401815 21.985368356618
8.624600000000001 0.0260657862152 -0.401273392345 0.9996568990008 -79.21350559460 0.9996568990008 -79.21350559460 0.0260667331063 21.984335142087
8.624800000000000 0.0260647777089 -0.404067401810 0.9996569251004 -79.21541934194 0.9996569251004 -79.21541934194 0.0260657247267 21.983302564005
8.625000000000000 0.0260637678860 -0.406862201045 0.9996569512324 -79.21733316581 0.9996569512324 -79.21733316581 0.0260647150310 21.982270627184
8.625200000000001 0.0260627567407 -0.409657793460 0.9996569773971 -79.21924706653 0.9996569773971 -79.21924706653 0.0260637040131 21.981239333777
8.625400000000001 0.0260617442622 -0.412454184069 0.9996570035946 -79.22116104474 0.9996570035946 -79.22116104474 0.0260626916626 21.980208688537
8.625600000000000 0.0260607304411 -0.415251378344 0.9996570298252 -79.22307510101 0.9996570298252 -79.22307510101 0.0260616779698 21.979178694837
8.625800000000000 0.0260597152696 -0.418049380120 0.9996570560893 -79.22498923576 0.9996570560893 -79.22498923576 0.0260606629272 21.978149355966
8.626000000000001 0.0260586987384 -0.420848194304 0.9996570823868 -79.22690344957 0.9996570823868 -79.22690344957 0.0260596465251 21.977120675775
8.626200000000001 0.0260576808386 -0.423647825244 0.9996571087181 -79.22881774293 0.9996571087181 -79.22881774293 0.0260586287549 21.976092657971
8.626400000000000 0.0260566615615 -0.426448277816 0.9996571350835 -79.23073211637 0.9996571350835 -79.23073211637 0.0260576096078 21.975065305952
8.626600000000000 0.0260556408969 -0.429249557272 0.9996571614831 -79.23264657048 0.9996571614831 -79.23264657048 0.0260565890736 21.974038623699
8.626800000000001 0.0260546188364 -0.432051667972 0.9996571879172 -79.23456110575 0.9996571879172 -79.23456110575 0.0260555671440 21.973012614772
8.627000000000001 0.0260535953722 -0.434854613984 0.9996572143860 -79.23647572265 0.9996572143860 -79.23647572265 0.0260545438110 21.971987282445
8.627200000000000 0.0260525704928 -0.437658401167 0.9996572408898 -79.23839042183 0.9996572408898 -79.23839042183 0.0260535190633 21.970962631326
8.627400000000000 0.0260515441910 -0.440463033640 0.9996572674287 -79.24030520373 0.9996572674287 -79.24030520373 0.0260524928935 21.969938664209
8.627600000000001 0.0260505164568 -0.443268516288 0.9996572940030 -79.24222006893 0.9996572940030 -79.24222006893 0.0260514652919 21.968915385328
8.627800000000001 0.0260494872799 -0.446074854500 0.9996573206130 -79.24413501803 0.9996573206130 -79.24413501803 0.0260504362479 21.967892798921
8.628000000000000 0.0260484566542 -0.448882051798 0.9996573472588 -79.24605005139 0.9996573472588 -79.24605005139 0.0260494057556 21.966870907273
8.628200000000001 0.0260474245675 -0.451690114170 0.9996573739407 -79.24796516972 0.9996573739407 -79.24796516972 0.0260483738028 21.965849715645
8.628400000000001 0.0260463910118 -0.454499046118 0.9996574006590 -79.24988037349 0.9996574006590 -79.24988037349 0.0260473403813 21.964829226980
8.628600000000000 0.0260453559774 -0.457308852499 0.9996574274137 -79.25179566328 0.9996574274137 -79.25179566328 0.0260463054816 21.963809445556
8.628800000000000 0.0260443194549 -0.460119538496 0.9996574542054 -79.25371103962 0.9996574542054 -79.25371103962 0.0260452690941 21.962790374889
8.629000000000001 0.0260432814357 -0.462931108344 0.9996574810341 -79.25562650303 0.9996574810341 -79.25562650303 0.0260442312106 21.961772018773
8.629200000000001 0.0260422419102 -0.465743567294 0.9996575079000 -79.25754205406 0.9996575079000 -79.25754205406 0.0260431918210 21.960754380986
8.629400000000000 0.0260412008684 -0.468556920490 0.9996575348035 -79.25945769331 0.9996575348035 -79.25945769331 0.0260421509156 21.959737465767
8.629600000000000 0.0260401583013 -0.471371172663 0.9996575617447 -79.26137342129 0.9996575617447 -79.26137342129 0.0260411084853 21.958721276670
8.629800000000001 0.0260391141986 -0.474186329313 0.9996575887240 -79.26328923861 0.9996575887240 -79.26328923861 0.0260400645200 21.957705817821
8.630000000000001 0.0260380685524 -0.477002394417 0.9996576157414 -79.26520514573 0.9996576157414 -79.26520514573 0.0260390190115 21.956691092774
8.630200000000000 0.0260370213527 -0.479819373530 0.9996576427974 -79.26712114325 0.9996576427974 -79.26712114325 0.0260379719500 21.955677105333
8.630400000000000 0.0260359725895 -0.482637271451 0.9996576698919 -79.26903723174 0.9996576698919 -79.26903723174 0.0260369233254 21.954663860015
8.630600000000001 0.0260349222528 -0.485456093804 0.9996576970255 -79.27095341179 0.9996576970255 -79.27095341179 0.0260358731278 21.953651360490
8.630800000000001 0.0260338703335 -0.488275845618 0.9996577241984 -79.27286968394 0.9996577241984 -79.27286968394 0.0260348213480 21.952639610477
8.631000000000000 0.0260328168221 -0.491096531336 0.9996577514106 -79.27478604873 0.9996577514106 -79.27478604873 0.0260337679766 21.951628614220
8.631200000000000 0.0260317617095 -0.493918156077 0.9996577786625 -79.27670250670 0.9996577786625 -79.27670250670 0.0260327130044 21.950618375324
8.631400000000001 0.0260307049845 -0.496740725594 0.9996578059544 -79.27861905852 0.9996578059544 -79.27861905852 0.0260316564203 21.949608898463
8.631600000000001 0.0260296466387 -0.499564244478 0.9996578332864 -79.28053570466 0.9996578332864 -79.28053570466 0.0260305982158 21.948600186960
8.631800000000000 0.0260285866621 -0.502388717945 0.9996578606589 -79.28245244572 0.9996578606589 -79.28245244572 0.0260295383810 21.947592245089
8.632000000000000 0.0260275250445 -0.505214151371 0.9996578880720 -79.28436928229 0.9996578880720 -79.28436928229 0.0260284769056 21.946585076894
8.632200000000001 0.0260264617769 -0.508040549543 0.9996579155260 -79.28628621490 0.9996579155260 -79.28628621490 0.0260274137808 21.945578686273
8.632400000000001 0.0260253968481 -0.510867918369 0.9996579430212 -79.28820324421 0.9996579430212 -79.28820324421 0.0260263489951 21.944573077722
8.632600000000000 0.0260243302500 -0.513696262040 0.9996579705578 -79.29012037068 0.9996579705578 -79.29012037068 0.0260252825406 21.943568254748
8.632800000000001 0.0260232619704 -0.516525587147 0.9996579981360 -79.29203759505 0.9996579981360 -79.29203759505 0.0260242144051 21.942564222226
8.633000000000001 0.0260221920015 -0.519355897642 0.9996580257561 -79.29395491775 0.9996580257561 -79.29395491775 0.0260231445809 21.941560983541
8.633200000000000 0.0260211203331 -0.522187199336 0.9996580534185 -79.29587233939 0.9996580534185 -79.29587233939 0.0260220730575 21.940558542666
8.633400000000000 0.0260200469533 -0.525019498089 0.9996580811232 -79.29778986066 0.9996580811232 -79.29778986066 0.0260209998232 21.939556904759
8.633600000000001 0.0260189718545 -0.527852798227 0.9996581088707 -79.29970748203 0.9996581088707 -79.29970748203 0.0260199248703 21.938556072953
8.633800000000001 0.0260178950254 -0.530687105363 0.9996581366609 -79.30162520412 0.9996581366609 -79.30162520412 0.0260188481877 21.937556052015
8.634000000000000 0.0260168164568 -0.533522424895 0.9996581644944 -79.30354302751 0.9996581644944 -79.30354302751 0.0260177697660 21.936556845496
8.634200000000000 0.0260157361349 -0.536358763593 0.9996581923713 -79.30546095298 0.9996581923713 -79.30546095298 0.0260166895915 21.935558459346
8.634400000000001 0.0260146540552 -0.539196124490 0.9996582202919 -79.30737898081 0.9996582202919 -79.30737898081 0.0260156076597 21.934560895278
8.634600000000001 0.0260135702045 -0.542034513962 0.9996582482564 -79.30929711176 0.9996582482564 -79.30929711176 0.0260145239573 21.933564159112
8.634800000000000 0.0260124845718 -0.544873938195 0.9996582762651 -79.31121534648 0.9996582762651 -79.31121534648 0.0260134384735 21.932568255056
8.635000000000000 0.0260113971498 -0.547714401093 0.9996583043182 -79.31313368540 0.9996583043182 -79.31313368540 0.0260123512008 21.931573186330
8.635200000000001 0.0260103079245 -0.550555910085 0.9996583324161 -79.31505212933 0.9996583324161 -79.31505212933 0.0260112621254 21.930578958586
8.635400000000001 0.0260092168879 -0.553398469129 0.9996583605589 -79.31697067876 0.9996583605589 -79.31697067876 0.0260101712391 21.929585575559
8.635600000000000 0.0260081240293 -0.556242084578 0.9996583887471 -79.31888933430 0.9996583887471 -79.31888933430 0.0260090785313 21.928593041097
8.635800000000000 0.0260070293383 -0.559086761237 0.9996584169806 -79.32080809656 0.9996584169806 -79.32080809656 0.0260079839916 21.927601360245
8.636000000000001 0.0260059328040 -0.561932505339 0.9996584452599 -79.32272696619 0.9996584452599 -79.32272696619 0.0260068876090 21.926610537125
8.636200000000001 0.0260048344167 -0.564779321926 0.9996584735852 -79.32464594374 0.9996584735852 -79.32464594374 0.0260057893741 21.925620575820
8.636400000000000 0.0260037341648 -0.567627217298 0.9996585019568 -79.32656502990 0.9996585019568 -79.32656502990 0.0260046892749 21.924631481271
8.636600000000001 0.0260026320388 -0.570476196472 0.9996585303749 -79.32848422523 0.9996585303749 -79.32848422523 0.0260035873022 21.923643257367
8.636800000000001 0.0260015280280 -0.573326265019 0.9996585588399 -79.33040353035 0.9996585588399 -79.33040353035 0.0260024834452 21.922655908721
8.637000000000000 0.0260004221208 -0.576177429223 0.9996585873519 -79.33232294594 0.9996585873519 -79.33232294594 0.0260013776923 21.921669440130
8.637200000000000 0.0259993143074 -0.579029694525 0.9996586159113 -79.33424247258 0.9996586159113 -79.33424247258 0.0260002700337 21.920683855483
8.637400000000001 0.0259982045768 -0.581883066552 0.9996586445183 -79.33616211091 0.9996586445183 -79.33616211091 0.0259991604583 21.919699159728
8.637600000000001 0.0259970929191 -0.584737550694 0.9996586731731 -79.33808186151 0.9996586731731 -79.33808186151 0.0259980489564 21.918715356884
8.637800000000000 0.0259959793222 -0.587593153366 0.9996587018761 -79.34000172509 0.9996587018761 -79.34000172509 0.0259969355159 21.917732451966
8.638000000000000 0.0259948637764 -0.590449879690 0.9996587306275 -79.34192170221 0.9996587306275 -79.34192170221 0.0259958201269 21.916750449326
8.638200000000001 0.0259937462706 -0.593307735855 0.9996587594276 -79.34384179354 0.9996587594276 -79.34384179354 0.0259947027785 21.915769353183
8.638400000000001 0.0259926267935 -0.596166727749 0.9996587882767 -79.34576199972 0.9996587882767 -79.34576199972 0.0259935834592 21.914789168594
8.638600000000000 0.0259915053340 -0.599026861444 0.9996588171750 -79.34768232142 0.9996588171750 -79.34768232142 0.0259924621581 21.913809900110
8.638800000000000 0.0259903818828 -0.601888141759 0.9996588461228 -79.34960275917 0.9996588461228 -79.34960275917 0.0259913388658 21.912831551751
8.639000000000001 0.0259892564264 -0.604750575878 0.9996588751204 -79.35152331376 0.9996588751204 -79.35152331376 0.0259902135688 21.911854129165
8.639200000000001 0.0259881289564 -0.607614168637 0.9996589041680 -79.35344398570 0.9996589041680 -79.35344398570 0.0259890862588 21.910877635785
8.639400000000000 0.0259869994594 -0.610478926907 0.9996589332660 -79.35536477575 0.9996589332660 -79.35536477575 0.0259879569223 21.909902077377
8.639600000000000 0.0259858679251 -0.613344856499 0.9996589624147 -79.35728568454 0.9996589624147 -79.35728568454 0.0259868255490 21.908927458075
8.639800000000001 0.0259847343429 -0.616211962862 0.9996589916142 -79.35920671267 0.9996589916142 -79.35920671267 0.0259856921283 21.907953782666
8.640000000000001 0.0259835987014 -0.619080252206 0.9996590208649 -79.36112786082 0.9996590208649 -79.36112786082 0.0259845566489 21.906981055829
8.640200000000000 0.0259824609885 -0.621949730908 0.9996590501670 -79.36304912969 0.9996590501670 -79.36304912969 0.0259834190987 21.906009282732