! Sonnet Data File
! From: emgraph Version : 16.52
! From Project: 171117_Xmon_fullysym
! Data is De-embedded 
! Data File Written: 11/26/2017 17:14:24
!< HDATE 11/22/2017 16:48:52
!< MDATE 11/23/2017 10:16:42
!< PARAMS
!< Lj = 11.0
!< Gap = 1.0
!< Pwid = 2000.0
!< Airgap = 6.0
!< Width = 10.0
!< Lj1 = 9.5
!< END PARAMS
# GHZ S MA R 50.90000
8.750000000000000 0.0240618828132 -2.937699784880 0.9997063661182 -80.49373040896 0.9997063661199 -80.49373040880 0.0240632630453 21.964490363560
!< P1 F=8.75 Eeff=(6.44841643 -2.9796e-5) Z0=(50.9085185 1.17018e-4) R=0.0 C=0.0 
!< P2 F=8.75 Eeff=(6.44841643 -2.9796e-5) Z0=(50.9085185 1.17018e-4) R=0.0 C=0.0 
8.750100000000000 0.0240575749245 -2.941491304690 0.9997064663332 -80.49491101247 0.9997064663332 -80.49491101247 0.0240589569146 21.965938225761
8.750200000000001 0.0240532500984 -2.945294090077 0.9997065669186 -80.49609261487 0.9997065669186 -80.49609261487 0.0240546338549 21.967395441647
8.750300000000001 0.0240489082347 -2.949108203192 0.9997066678767 -80.49727522193 0.9997066678767 -80.49727522193 0.0240502937678 21.968862078632
8.750400000000001 0.0240445492279 -2.952933718043 0.9997067692091 -80.49845883987 0.9997067692091 -80.49845883987 0.0240459365480 21.970338202014
8.750500000000001 0.0240401729664 -2.956770713497 0.9997068709177 -80.49964347528 0.9997068709177 -80.49964347528 0.0240415620842 21.971823879396
8.750600000000000 0.0240357793693 -2.960619251255 0.9997069730046 -80.50082913296 0.9997069730046 -80.50082913296 0.0240371702955 21.973319162131
8.750700000000000 0.0240313683321 -2.964479407177 0.9997070754719 -80.50201581910 0.9997070754719 -80.50201581910 0.0240327610772 21.974824113951
8.750800000000000 0.0240269397458 -2.968351260366 0.9997071783224 -80.50320354013 0.9997071783224 -80.50320354013 0.0240283343204 21.976338800117
8.750900000000000 0.0240224935169 -2.972234877689 0.9997072815569 -80.50439230159 0.9997072815569 -80.50439230159 0.0240238899321 21.977863281461
8.751000000000001 0.0240180295287 -2.976130342843 0.9997073851780 -80.50558211038 0.9997073851780 -80.50558211038 0.0240194277954 21.979397628036
8.751100000000001 0.0240135477024 -2.980037717156 0.9997074891878 -80.50677297117 0.9997074891878 -80.50677297117 0.0240149478316 21.980941890612
8.751200000000001 0.0240090479133 -2.983957087547 0.9997075935880 -80.50796489131 0.9997075935880 -80.50796489131 0.0240104499162 21.982496145279
8.751300000000001 0.0240045300568 -2.987888533615 0.9997076983823 -80.50915787703 0.9997076983823 -80.50915787703 0.0240059339443 21.984060453995
8.751400000000000 0.0239999940464 -2.991832117906 0.9997078035709 -80.51035193342 0.9997078035709 -80.51035193342 0.0240013998300 21.985634875456
8.751500000000000 0.0239954397520 -2.995787933060 0.9997079091570 -80.51154706818 0.9997079091570 -80.51154706818 0.0239968474430 21.987219487094
8.751600000000000 0.0239908670741 -2.999756051654 0.9997080151418 -80.51274328719 0.9997080151418 -80.51274328719 0.0239922766843 21.988814352861
8.751700000000001 0.0239862759036 -3.003736557384 0.9997081215293 -80.51394059693 0.9997081215293 -80.51394059693 0.0239876874441 21.990419536756
8.751800000000001 0.0239816661404 -3.007729520863 0.9997082283199 -80.51513900330 0.9997082283199 -80.51513900330 0.0239830796231 21.992035105843
8.751900000000001 0.0239770376540 -3.011735036216 0.9997083355167 -80.51633851402 0.9997083355167 -80.51633851402 0.0239784530907 21.993661137708
8.752000000000001 0.0239723903482 -3.015753176594 0.9997084431218 -80.51753913481 0.9997084431218 -80.51753913481 0.0239738077506 21.995297693789
8.752100000000000 0.0239677241173 -3.019784019041 0.9997085511370 -80.51874087189 0.9997085511370 -80.51874087189 0.0239691434976 21.996944841577
8.752200000000000 0.0239630388354 -3.023827655572 0.9997086595653 -80.51994373273 0.9997086595653 -80.51994373273 0.0239644602055 21.998602657294
8.752300000000000 0.0239583343944 -3.027884165943 0.9997087684086 -80.52114772373 0.9997087684086 -80.52114772373 0.0239597577664 22.000271209449
8.752400000000000 0.0239536106683 -3.031953640166 0.9997088776690 -80.52235285232 0.9997088776690 -80.52235285232 0.0239550360546 22.001950576554
8.752500000000001 0.0239488675629 -3.036036152740 0.9997089873493 -80.52355912411 0.9997089873493 -80.52355912411 0.0239502949756 22.003640818051
8.752600000000001 0.0239441049444 -3.040131796597 0.9997090974510 -80.52476654699 0.9997090974510 -80.52476654699 0.0239455343963 22.005342018604
8.752700000000001 0.0239393226991 -3.044240660066 0.9997092079779 -80.52597512771 0.9997092079779 -80.52597512771 0.0239407542025 22.007054246379
8.752800000000001 0.0239345207102 -3.048362826393 0.9997093189310 -80.52718487316 0.9997093189310 -80.52718487316 0.0239359542778 22.008777577876
8.752900000000000 0.0239296988577 -3.052498385508 0.9997094303135 -80.52839579046 0.9997094303135 -80.52839579046 0.0239311345023 22.010512086968
8.753000000000000 0.0239248570227 -3.056647423405 0.9997095421268 -80.52960788664 0.9997095421268 -80.52960788664 0.0239262947574 22.012257850527
8.753100000000000 0.0239199950827 -3.060810032833 0.9997096543743 -80.53082116895 0.9997096543743 -80.53082116895 0.0239214349203 22.014014943427
8.753200000000001 0.0239151129251 -3.064986297673 0.9997097670580 -80.53203564406 0.9997097670580 -80.53203564407 0.0239165548787 22.015783438330
8.753300000000001 0.0239102104044 -3.069176323760 0.9997098801812 -80.53325132059 0.9997098801812 -80.53325132059 0.0239116544870 22.017563423467
8.753400000000001 0.0239052874065 -3.073380194013 0.9997099937450 -80.53446820526 0.9997099937450 -80.53446820526 0.0239067336318 22.019354974822
8.753500000000001 0.0239003438146 -3.077597998178 0.9997101077526 -80.53568630502 0.9997101077526 -80.53568630502 0.0239017921959 22.021158165428
8.753600000000000 0.0238953794962 -3.081829834547 0.9997102222068 -80.53690562770 0.9997102222068 -80.53690562770 0.0238968300468 22.022973077690
8.753700000000000 0.0238903943181 -3.086075799553 0.9997103371097 -80.53812618118 0.9997103371097 -80.53812618118 0.0238918470519 22.024799796656
8.753800000000000 0.0238853881633 -3.090335981773 0.9997104524636 -80.53934797239 0.9997104524636 -80.53934797239 0.0238868430941 22.026638398020
8.753900000000000 0.0238803608934 -3.094610485238 0.9997105682722 -80.54057100953 0.9997105682722 -80.54057100953 0.0238818180348 22.028488966263
8.754000000000001 0.0238753123855 -3.098899398873 0.9997106845364 -80.54179529987 0.9997106845364 -80.54179529987 0.0238767717518 22.030351583812
8.754100000000001 0.0238702425037 -3.103202826450 0.9997108012602 -80.54302085145 0.9997108012602 -80.54302085145 0.0238717041089 22.032226333563
8.754200000000001 0.0238651511167 -3.107520863805 0.9997109184453 -80.54424767205 0.9997109184453 -80.54424767205 0.0238666149752 22.034113301341
8.754300000000001 0.0238600380649 -3.111853627499 0.9997110360952 -80.54547577110 0.9997110360953 -80.54547577110 0.0238615041912 22.036012584703
8.754400000000000 0.0238549032641 -3.116201187433 0.9997111542117 -80.54670515363 0.9997111542117 -80.54670515363 0.0238563716725 22.037924243798
8.754500000000000 0.0238497465350 -3.120563672697 0.9997112727987 -80.54793583022 0.9997112727987 -80.54793583022 0.0238512172401 22.039848386519
8.754600000000000 0.0238445677580 -3.124941173017 0.9997113918576 -80.54916780796 0.9997113918576 -80.54916780796 0.0238460407746 22.041785093603
8.754700000000000 0.0238393668031 -3.129333787980 0.9997115113915 -80.55040109454 0.9997115113915 -80.55040109454 0.0238408421462 22.043734448122
8.754800000000001 0.0238341435101 -3.133741635489 0.9997116314039 -80.55163569947 0.9997116314039 -80.55163569947 0.0238356211946 22.045696549502
8.754900000000001 0.0238288977544 -3.138164810297 0.9997117518968 -80.55287163011 0.9997117518968 -80.55287163011 0.0238303777954 22.047671480308
8.755000000000001 0.0238236293861 -3.142603423376 0.9997118728729 -80.55410889533 0.9997118728729 -80.55410889533 0.0238251117991 22.049659336223
8.755100000000001 0.0238183382714 -3.147057576911 0.9997119943352 -80.55534750308 0.9997119943352 -80.55534750308 0.0238198230718 22.051660203913
8.755200000000000 0.0238130242533 -3.151527387116 0.9997121162865 -80.55658746263 0.9997121162865 -80.55658746263 0.0238145114566 22.053674182771
8.755300000000000 0.0238076871923 -3.156012962183 0.9997122387308 -80.55782878226 0.9997122387308 -80.55782878226 0.0238091768139 22.055701361178
8.755400000000000 0.0238023269364 -3.160514412676 0.9997123616696 -80.55907147096 0.9997123616696 -80.55907147096 0.0238038189923 22.057741839187
8.755500000000001 0.0237969433513 -3.165031842574 0.9997124851059 -80.56031553670 0.9997124851059 -80.56031553670 0.0237984378576 22.059795704451
8.755600000000001 0.0237915362765 -3.169565371889 0.9997126090431 -80.56156098897 0.9997126090431 -80.56156098897 0.0237930332491 22.061863058720
8.755700000000001 0.0237861055633 -3.174115110969 0.9997127334831 -80.56280783658 0.9997127334831 -80.56280783658 0.0237876050188 22.063944000206
8.755800000000001 0.0237806510591 -3.178681179282 0.9997128584308 -80.56405608857 0.9997128584308 -80.56405608857 0.0237821530136 22.066038623620
8.755900000000000 0.0237751726096 -3.183263690687 0.9997129838881 -80.56530575409 0.9997129838881 -80.56530575409 0.0237766770797 22.068147031367
8.756000000000000 0.0237696700671 -3.187862757643 0.9997131098576 -80.56655684188 0.9997131098576 -80.56655684188 0.0237711770695 22.070269320206
8.756100000000000 0.0237641432737 -3.192478500626 0.9997132363429 -80.56780936130 0.9997132363429 -80.56780936130 0.0237656528253 22.072405591249
8.756200000000000 0.0237585920638 -3.197111042809 0.9997133633468 -80.56906332214 0.9997133633468 -80.56906332214 0.0237601041816 22.074555952212
8.756300000000001 0.0237530162851 -3.201760501561 0.9997134908727 -80.57031873345 0.9997134908727 -80.57031873345 0.0237545309863 22.076720502007
8.756400000000001 0.0237474157843 -3.206426993722 0.9997136189231 -80.57157560429 0.9997136189231 -80.57157560429 0.0237489330862 22.078899341902
8.756500000000001 0.0237417903813 -3.211110654972 0.9997137475023 -80.57283394535 0.9997137475023 -80.57283394535 0.0237433103012 22.081092585545
8.756600000000001 0.0237361399372 -3.215811591949 0.9997138766120 -80.57409376483 0.9997138766120 -80.57409376483 0.0237376624930 22.083300328862
8.756700000000000 0.0237304642710 -3.220529943597 0.9997140062570 -80.57535507349 0.9997140062570 -80.57535507349 0.0237319894802 22.085522684708
8.756800000000000 0.0237247632192 -3.225265831241 0.9997141364390 -80.57661788100 0.9997141364390 -80.57661788100 0.0237262910999 22.087759763604
8.756900000000000 0.0237190366229 -3.230019379507 0.9997142671621 -80.57788219677 0.9997142671621 -80.57788219677 0.0237205671931 22.090011668624
8.757000000000000 0.0237132843054 -3.234790722014 0.9997143984295 -80.57914803128 0.9997143984295 -80.57914803128 0.0237148175835 22.092278514481
8.757100000000001 0.0237075060965 -3.239579987198 0.9997145302440 -80.58041539460 0.9997145302440 -80.58041539460 0.0237090421010 22.094560414480
8.757200000000001 0.0237017018306 -3.244387305084 0.9997146626096 -80.58168429657 0.9997146626096 -80.58168429657 0.0237032405799 22.096857476004
8.757300000000001 0.0236958713359 -3.249212805143 0.9997147955289 -80.58295474735 0.9997147955289 -80.58295474735 0.0236974128490 22.099169814209
8.757400000000001 0.0236900144339 -3.254056625972 0.9997149290061 -80.58422675752 0.9997149290061 -80.58422675752 0.0236915587296 22.101497543852
8.757500000000000 0.0236841309516 -3.258918899912 0.9997150630443 -80.58550033734 0.9997150630443 -80.58550033734 0.0236856780490 22.103840780172
8.757600000000000 0.0236782207000 -3.263799768499 0.9997151976462 -80.58677549801 0.9997151976462 -80.58677549801 0.0236797706186 22.106199648245
8.757700000000000 0.0236722835127 -3.268699363175 0.9997153328158 -80.58805224938 0.9997153328158 -80.58805224938 0.0236738362721 22.108574258068
8.757800000000001 0.0236663192072 -3.273617824167 0.9997154685566 -80.58933060228 0.9997154685566 -80.58933060228 0.0236678748271 22.110964730330
8.757900000000001 0.0236603275917 -3.278555300154 0.9997156048732 -80.59061056809 0.9997156048732 -80.59061056809 0.0236618860914 22.113371188570
8.758000000000001 0.0236543084909 -3.283511924205 0.9997157417676 -80.59189215718 0.9997157417676 -80.59189215718 0.0236558698908 22.115793753150
8.758100000000001 0.0236482617172 -3.288487840606 0.9997158792432 -80.59317538066 0.9997158792432 -80.59317538066 0.0236498260378 22.118232548654
8.758200000000000 0.0236421870785 -3.293483199480 0.9997160173048 -80.59446024994 0.9997160173048 -80.59446024994 0.0236437543401 22.120687699762
8.758300000000000 0.0236360844003 -3.298498136518 0.9997161559551 -80.59574677537 0.9997161559551 -80.59574677537 0.0236376546235 22.123159326128
8.758400000000000 0.0236299534757 -3.303532811745 0.9997162951989 -80.59703496921 0.9997162951989 -80.59703496921 0.0236315266810 22.125647561196
8.758500000000000 0.0236237941200 -3.308587365736 0.9997164350384 -80.59832484239 0.9997164350384 -80.59832484239 0.0236253703289 22.128152532360
8.758600000000001 0.0236176061297 -3.313661957751 0.9997165754785 -80.59961640699 0.9997165754785 -80.59961640699 0.0236191853632 22.130674371869
8.758700000000001 0.0236113893228 -3.318756729350 0.9997167165218 -80.60090967379 0.9997167165218 -80.60090967379 0.0236129716025 22.133213205041
8.758800000000001 0.0236051434885 -3.323871844886 0.9997168581736 -80.60220465531 0.9997168581736 -80.60220465531 0.0236067288358 22.135769168813
8.758900000000001 0.0235988684388 -3.329007451212 0.9997170004367 -80.60350136269 0.9997170004367 -80.60350136269 0.0236004568754 22.138342392066
8.759000000000000 0.0235925639575 -3.334163711936 0.9997171433144 -80.60479980873 0.9997171433144 -80.60479980873 0.0235941555060 22.140933019765
8.759100000000000 0.0235862298528 -3.339340781489 0.9997172868115 -80.60610000482 0.9997172868115 -80.60610000482 0.0235878245354 22.143541179681
8.759200000000000 0.0235798659222 -3.344538818246 0.9997174309319 -80.60740196298 0.9997174309319 -80.60740196298 0.0235814637611 22.146167008665
8.759300000000001 0.0235734719453 -3.349757991676 0.9997175756795 -80.60870569626 0.9997175756795 -80.60870569626 0.0235750729632 22.148810653511
8.759400000000001 0.0235670477187 -3.354998462258 0.9997177210583 -80.61001121672 0.9997177210583 -80.61001121672 0.0235686519385 22.151472251861
8.759500000000001 0.0235605930406 -3.360260388650 0.9997178670718 -80.61131853635 0.9997178670718 -80.61131853635 0.0235622004855 22.154151941941
8.759600000000001 0.0235541076818 -3.365543947511 0.9997180137243 -80.61262766872 0.9997180137243 -80.61262766872 0.0235557183753 22.156849876580
8.759700000000000 0.0235475914440 -3.370849296483 0.9997181610192 -80.61393862560 0.9997181610192 -80.61393862560 0.0235492054099 22.159566193072
8.759800000000000 0.0235410440965 -3.376176618397 0.9997183089625 -80.61525142069 0.9997183089625 -80.61525142069 0.0235426613582 22.162301042176
8.759900000000000 0.0235344654319 -3.381526075102 0.9997184575568 -80.61656606628 0.9997184575568 -80.61656606628 0.0235360860135 22.165054569064
8.760000000000000 0.0235278552195 -3.386897846354 0.9997186068064 -80.61788257604 0.9997186068064 -80.61788257604 0.0235294791455 22.167826929302
8.760100000000001 0.0235212132354 -3.392292108606 0.9997187567155 -80.61920096326 0.9997187567155 -80.61920096326 0.0235228405305 22.170618274842
8.760200000000001 0.0235145392568 -3.397709040675 0.9997189072895 -80.62052124118 0.9997189072895 -80.62052124118 0.0235161699453 22.173428755573
8.760300000000001 0.0235078330653 -3.403148812981 0.9997190585311 -80.62184342272 0.9997190585310 -80.62184342272 0.0235094671726 22.176258524694
8.760400000000001 0.0235010944157 -3.408611617061 0.9997192104449 -80.62316752245 0.9997192104449 -80.62316752245 0.0235027319673 22.179107747194
8.760500000000000 0.0234943230864 -3.414097633673 0.9997193630366 -80.62449355352 0.9997193630366 -80.62449355352 0.0234959641073 22.181976572723
8.760600000000000 0.0234875188437 -3.419607043065 0.9997195163086 -80.62582152977 0.9997195163086 -80.62582152977 0.0234891633603 22.184865165652
8.760700000000000 0.0234806814417 -3.425140041824 0.9997196702669 -80.62715146581 0.9997196702669 -80.62715146581 0.0234823294798 22.187773690314
8.760800000000000 0.0234738106454 -3.430696816346 0.9997198249155 -80.62848337559 0.9997198249155 -80.62848337559 0.0234754622314 22.190702309337
8.760900000000001 0.0234669062215 -3.436277554231 0.9997199802591 -80.62981727295 0.9997199802591 -80.62981727295 0.0234685613818 22.193651183338
8.761000000000001 0.0234599679275 -3.441882446607 0.9997201363014 -80.63115317228 0.9997201363014 -80.63115317228 0.0234616266891 22.196620481006
8.761100000000001 0.0234529955076 -3.447511697503 0.9997202930482 -80.63249108875 0.9997202930482 -80.63249108875 0.0234546578976 22.199610375271
8.761200000000001 0.0234459887131 -3.453165502174 0.9997204505027 -80.63383103711 0.9997204505027 -80.63383103711 0.0234476547592 22.202621040299
8.761300000000000 0.0234389473148 -3.458844050579 0.9997206086707 -80.63517303100 0.9997206086707 -80.63517303100 0.0234406170445 22.205652634755
8.761400000000000 0.0234318710295 -3.464547561937 0.9997207675566 -80.63651708720 0.9997207675566 -80.63651708720 0.0234335444709 22.208705351587
8.761500000000000 0.0234247596260 -3.470276228828 0.9997209271661 -80.63786321946 0.9997209271661 -80.63786321946 0.0234264368068 22.211779351763
8.761600000000001 0.0234176128199 -3.476030269030 0.9997210875023 -80.63921144462 0.9997210875023 -80.63921144462 0.0234192937692 22.214874833251
8.761700000000001 0.0234104303850 -3.481809871234 0.9997212485699 -80.64056177612 0.9997212485699 -80.64056177612 0.0234121151319 22.217991957427
8.761800000000001 0.0234032120356 -3.487615262542 0.9997214103749 -80.64191423093 0.9997214103749 -80.64191423093 0.0234049006092 22.221130917868
8.761900000000001 0.0233959575214 -3.493446647931 0.9997215729224 -80.64326882393 0.9997215729224 -80.64326882393 0.0233976499509 22.224291890631
8.762000000000000 0.0233886665675 -3.499304247583 0.9997217362174 -80.64462557142 0.9997217362174 -80.64462557142 0.0233903628823 22.227475066267
8.762100000000000 0.0233813388988 -3.505188277950 0.9997219002633 -80.64598448971 0.9997219002633 -80.64598448971 0.0233830391296 22.230680640135
8.762200000000000 0.0233739742327 -3.511098970683 0.9997220650674 -80.64734559560 0.9997220650674 -80.64734559560 0.0233756784095 22.233908804038
8.762300000000000 0.0233665723082 -3.517036535288 0.9997222306329 -80.64870890459 0.9997222306329 -80.64870890459 0.0233682804620 22.237159746927
8.762400000000001 0.0233591328491 -3.523001196867 0.9997223969654 -80.65007443307 0.9997223969654 -80.65007443307 0.0233608450111 22.240433661726
8.762500000000001 0.0233516555690 -3.528993188423 0.9997225640708 -80.65144219806 0.9997225640708 -80.65144219806 0.0233533717703 22.243730747440
8.762600000000001 0.0233441401740 -3.535012744583 0.9997227319539 -80.65281221699 0.9997227319539 -80.65281221699 0.0233458604464 22.247051211114
8.762700000000001 0.0233365863890 -3.541060092461 0.9997229006203 -80.65418450623 0.9997229006203 -80.65418450623 0.0233383107644 22.250395247286
8.762800000000000 0.0233289939163 -3.547135471099 0.9997230700748 -80.65555908343 0.9997230700748 -80.65555908343 0.0233307224272 22.253763066224
8.762900000000000 0.0233213624722 -3.553239112016 0.9997232403221 -80.65693596546 0.9997232403222 -80.65693596546 0.0233230951515 22.257154871123
8.763000000000000 0.0233136917559 -3.559371262712 0.9997234113692 -80.65831517017 0.9997234113692 -80.65831517017 0.0233154286365 22.260570871132
8.763100000000000 0.0233059814632 -3.565532169938 0.9997235832213 -80.65969671564 0.9997235832213 -80.65969671564 0.0233077225785 22.264011281626
8.763200000000001 0.0232982312902 -3.571722079014 0.9997237558830 -80.66108061991 0.9997237558830 -80.66108061991 0.0232999766741 22.267476320579
8.763300000000001 0.0232904409448 -3.577941233384 0.9997239293603 -80.66246690034 0.9997239293603 -80.66246690034 0.0232921906315 22.270966195951
8.763400000000001 0.0232826101122 -3.584189888163 0.9997241036585 -80.66385557563 0.9997241036585 -80.66385557563 0.0232843641363 22.274481132353
8.763500000000001 0.0232747384767 -3.590468303287 0.9997242787840 -80.66524666454 0.9997242787840 -80.66524666454 0.0232764968732 22.278021352532
8.763600000000000 0.0232668257201 -3.596776738365 0.9997244547421 -80.66664018596 0.9997244547421 -80.66664018596 0.0232685885241 22.281587084420
8.763700000000000 0.0232588715346 -3.603115447628 0.9997246315382 -80.66803615819 0.9997246315382 -80.66803615819 0.0232606387821 22.285178550538
8.763800000000000 0.0232508756014 -3.609484697692 0.9997248091795 -80.66943460018 0.9997248091794 -80.66943460018 0.0232526473280 22.288795976410
8.763900000000001 0.0232428375787 -3.615884764549 0.9997249876711 -80.67083553223 0.9997249876711 -80.67083553223 0.0232446138208 22.292439606985
8.764000000000001 0.0232347571595 -3.622315903726 0.9997251670179 -80.67223897257 0.9997251670179 -80.67223897257 0.0232365379544 22.296109667973
8.764100000000001 0.0232266340026 -3.628778396686 0.9997253472266 -80.67364494149 0.9997253472266 -80.67364494149 0.0232284193875 22.299806402368
8.764200000000001 0.0232184677635 -3.635272527718 0.9997255283037 -80.67505345946 0.9997255283037 -80.67505345946 0.0232202577762 22.303530056011
8.764300000000000 0.0232102581146 -3.641798569396 0.9997257102549 -80.67646454595 0.9997257102549 -80.67646454595 0.0232120527933 22.307280868328
8.764400000000000 0.0232020047157 -3.648356804691 0.9997258930863 -80.67787822119 0.9997258930863 -80.67787822119 0.0232038040988 22.311059085650
8.764500000000000 0.0231937072130 -3.654947527169 0.9997260768047 -80.67929450620 0.9997260768047 -80.67929450620 0.0231955113394 22.314864961780
8.764600000000000 0.0231853652639 -3.661571023429 0.9997262614163 -80.68071342134 0.9997262614163 -80.68071342134 0.0231871741729 22.318698746354
8.764700000000001 0.0231769785248 -3.668227579076 0.9997264469264 -80.68213498706 0.9997264469264 -80.68213498706 0.0231787922563 22.322560693201
8.764800000000001 0.0231685466193 -3.674917505061 0.9997266333420 -80.68355922570 0.9997266333420 -80.68355922570 0.0231703652139 22.326451072207
8.764900000000001 0.0231600691947 -3.681641099064 0.9997268206699 -80.68498615825 0.9997268206699 -80.68498615825 0.0231618926930 22.330370140799
8.765000000000001 0.0231515458843 -3.688398666126 0.9997270089161 -80.68641580650 0.9997270089161 -80.68641580650 0.0231533743276 22.334318167675
8.765100000000000 0.0231429763397 -3.695190502397 0.9997271980871 -80.68784819118 0.9997271980871 -80.68784819118 0.0231448097698 22.338295411027
8.765200000000000 0.0231343601671 -3.702016935509 0.9997273881903 -80.68928333571 0.9997273881903 -80.68928333571 0.0231361986259 22.342302154577
8.765300000000000 0.0231256969911 -3.708878279630 0.9997275792318 -80.69072126239 0.9997275792318 -80.69072126239 0.0231275405213 22.346338675276
8.765400000000001 0.0231169864254 -3.715774855318 0.9997277712173 -80.69216199419 0.9997277712173 -80.69216199419 0.0231188350709 22.350405259208
8.765500000000001 0.0231082281219 -3.722706974297 0.9997279641573 -80.69360555187 0.9997279641573 -80.69360555187 0.0231100819250 22.354502159569
8.765600000000001 0.0230994216481 -3.729674979091 0.9997281580540 -80.69505196106 0.9997281580540 -80.69505196106 0.0231012806540 22.358629699713
8.765700000000001 0.0230905666363 -3.736679193005 0.9997283529169 -80.69650124370 0.9997283529169 -80.69650124370 0.0230924308895 22.362788149572
8.765800000000000 0.0230816626801 -3.743719960157 0.9997285487540 -80.69795342395 0.9997285487540 -80.69795342395 0.0230835322252 22.366977806495
8.765900000000000 0.0230727093848 -3.750797609955 0.9997287455696 -80.69940852526 0.9997287455696 -80.69940852526 0.0230745842681 22.371198970513
8.766000000000000 0.0230637063421 -3.757912492868 0.9997289433727 -80.70086657196 0.9997289433727 -80.70086657196 0.0230655866097 22.375451940817
8.766100000000000 0.0230546531357 -3.765064961188 0.9997291421704 -80.70232758878 0.9997291421704 -80.70232758878 0.0230565388343 22.379737026483
8.766200000000001 0.0230455493662 -3.772255355067 0.9997293419686 -80.70379159950 0.9997293419686 -80.70379159950 0.0230474405436 22.384054531119
8.766300000000001 0.0230363946014 -3.779484043577 0.9997295427759 -80.70525862983 0.9997295427759 -80.70525862983 0.0230382913054 22.388404772542
8.766400000000001 0.0230271884060 -3.786751398369 0.9997297446010 -80.70672870568 0.9997297446010 -80.70672870568 0.0230290906846 22.392788072518
8.766500000000001 0.0230179303876 -3.794057757578 0.9997299474487 -80.70820185040 0.9997299474487 -80.70820185040 0.0230198382902 22.397204736711
8.766600000000000 0.0230086200837 -3.801403513644 0.9997301513279 -80.70967809149 0.9997301513279 -80.70967809149 0.0230105336601 22.401655105027
8.766700000000000 0.0229992570647 -3.808789038381 0.9997303562467 -80.71115745455 0.9997303562467 -80.71115745455 0.0230011763648 22.406139501442
8.766800000000000 0.0229898408802 -3.816214717497 0.9997305622129 -80.71263996637 0.9997305622129 -80.71263996637 0.0229917659547 22.410658264003
8.766900000000000 0.0229803711102 -3.823680914685 0.9997307692325 -80.71412565196 0.9997307692325 -80.71412565196 0.0229823020108 22.415211718847
8.767000000000001 0.0229708472533 -3.831188052675 0.9997309773143 -80.71561454112 0.9997309773143 -80.71561454112 0.0229727840325 22.419800235625
8.767100000000001 0.0229612688790 -3.838736513496 0.9997311864675 -80.71710665953 0.9997311864675 -80.71710665953 0.0229632115891 22.424424142237
8.767200000000001 0.0229516355415 -3.846326684781 0.9997313966992 -80.71860203372 0.9997313966992 -80.71860203372 0.0229535842356 22.429083782525
8.767300000000001 0.0229419467480 -3.853958985638 0.9997316080168 -80.72010069301 0.9997316080168 -80.72010069301 0.0229439014806 22.433779529084
8.767400000000000 0.0229322020259 -3.861633830988 0.9997318204303 -80.72160266556 0.9997318204303 -80.72160266556 0.0229341628511 22.438511738847
8.767500000000000 0.0229224009057 -3.869351627894 0.9997320339465 -80.72310797932 0.9997320339465 -80.72310797932 0.0229243678789 22.443280775312
8.767600000000000 0.0229125428904 -3.877112805772 0.9997322485736 -80.72461666386 0.9997322485736 -80.72461666386 0.0229145160679 22.448087017160
8.767700000000001 0.0229026275059 -3.884917782666 0.9997324643204 -80.72612874744 0.9997324643204 -80.72612874744 0.0229046069444 22.452930830446
8.767800000000001 0.0228926542293 -3.892767009463 0.9997326811957 -80.72764426118 0.9997326811957 -80.72764426118 0.0228946399863 22.457812611817
8.767900000000001 0.0228826225798 -3.900660912796 0.9997328992082 -80.72916323374 0.9997328992082 -80.72916323374 0.0228846147133 22.462732734620
8.768000000000001 0.0228725320465 -3.908599940554 0.9997331183670 -80.73068569556 0.9997331183670 -80.73068569556 0.0228745306149 22.467691591902
8.768100000000000 0.0228623821160 -3.916584541586 0.9997333386801 -80.73221167719 0.9997333386801 -80.73221167719 0.0228643871789 22.472689582151
8.768200000000000 0.0228521722591 -3.924615176892 0.9997335601557 -80.73374121016 0.9997335601557 -80.73374121016 0.0228541838774 22.477727115494
8.768300000000000 0.0228419019698 -3.932692301104 0.9997337828041 -80.73527432463 0.9997337828041 -80.73527432463 0.0228439202042 22.482804584867
8.768400000000000 0.0228315707011 -3.940816390006 0.9997340066332 -80.73681105318 0.9997340066332 -80.73681105318 0.0228335956138 22.487922415714
8.768500000000001 0.0228211779165 -3.948987919720 0.9997342316527 -80.73835142778 0.9997342316527 -80.73835142778 0.0228232095700 22.493081025426
8.768600000000001 0.0228107230701 -3.957207376542 0.9997344578731 -80.73989548098 0.9997344578731 -80.73989548098 0.0228127615274 22.498280837126
8.768700000000001 0.0228002056375 -3.965475226509 0.9997346853013 -80.74144324400 0.9997346853013 -80.74144324400 0.0228022509633 22.503522271325
8.768800000000001 0.0227896249998 -3.973792008168 0.9997349139486 -80.74299475372 0.9997349139486 -80.74299475372 0.0227916772591 22.508805798426
8.768900000000000 0.0227789806390 -3.982158193456 0.9997351438239 -80.74455004104 0.9997351438239 -80.74455004104 0.0227810398976 22.514131835133
8.769000000000000 0.0227682719888 -3.990574287621 0.9997353749364 -80.74610913970 0.9997353749364 -80.74610913970 0.0227703383134 22.519500829127
8.769100000000000 0.0227574984659 -3.999040809877 0.9997356072956 -80.74767208449 0.9997356072956 -80.74767208449 0.0227595719244 22.524913240232
8.769200000000000 0.0227466594739 -4.007558294951 0.9997358409129 -80.74923891094 0.9997358409129 -80.74923891094 0.0227487401343 22.530369534324
8.769300000000001 0.0227357544016 -4.016127282806 0.9997360757971 -80.75080965549 0.9997360757971 -80.75080965549 0.0227378423336 22.535870195072
8.769400000000001 0.0227247826957 -4.024748281872 0.9997363119577 -80.75238435114 0.9997363119577 -80.75238435114 0.0227268779696 22.541415671082
8.769500000000001 0.0227137437351 -4.033421848234 0.9997365494054 -80.75396303494 0.9997365494054 -80.75396303494 0.0227158464220 22.547006453166
8.769600000000001 0.0227026368803 -4.042148553207 0.9997367881510 -80.75554574499 0.9997367881510 -80.75554574499 0.0227047470523 22.552643045031
8.769700000000000 0.0226914615490 -4.050928929865 0.9997370282035 -80.75713251604 0.9997370282035 -80.75713251604 0.0226935792795 22.558325922742
8.769800000000000 0.0226802170940 -4.059763563822 0.9997372695750 -80.75872338671 0.9997372695750 -80.75872338671 0.0226823424564 22.564055597174
8.769900000000000 0.0226689028645 -4.068653036070 0.9997375122744 -80.76031839576 0.9997375122744 -80.76031839576 0.0226710359346 22.569832592636
8.770000000000001 0.0226575182455 -4.077597915825 0.9997377563128 -80.76191757993 0.9997377563128 -80.76191757993 0.0226596590991 22.575657408073
8.770100000000001 0.0226460625588 -4.086598817618 0.9997380017029 -80.76352097966 0.9997380017029 -80.76352097966 0.0226482112724 22.581530581341