! Sonnet Data File
! From: emgraph Version : 16.52
! From Project: 171117_Xmon_fullysym
! Data is De-embedded 
! Data File Written: 11/26/2017 21:44:45
!< HDATE 11/26/2017 17:24:49
!< MDATE 11/26/2017 17:24:49
!< PARAMS
!< Lj = 11.0
!< Gap = 1.0
!< Pwid = 2000.0
!< Airgap = 6.0
!< Width = 10.0
!< Lj1 = 8.2
!< END PARAMS
# GHZ S MA R 50.90000
8.600000000000001 0.0256483733490 -0.298343703766 0.9996677699771 -79.00961089698 0.9996677699771 -79.00961089726 0.0256493039210 22.289068473950
!< P1 F=8.6 Eeff=(6.44845572 -2.9799e-5) Z0=(50.9087207 1.17006e-4) R=0.0 C=0.0 
!< P2 F=8.6 Eeff=(6.44845572 -2.9799e-5) Z0=(50.9087207 1.17006e-4) R=0.0 C=0.0 
8.600200000000001 0.0256480662211 -0.300819367183 0.9996677776910 -79.01148390604 0.9996677776910 -79.01148390604 0.0256489969093 22.287798768857
8.600400000000000 0.0256477578726 -0.303295735881 0.9996677854107 -79.01335698785 0.9996677854107 -79.01335698785 0.0256486886566 22.286529584008
8.600600000000000 0.0256474482680 -0.305772782843 0.9996677931622 -79.01523014228 0.9996677931622 -79.01523014228 0.0256483791481 22.285260934205
8.600800000000001 0.0256471374048 -0.308250509415 0.9996678009455 -79.01710336948 0.9996678009455 -79.01710336948 0.0256480683812 22.283992820726
8.601000000000001 0.0256468252788 -0.310728917996 0.9996678087609 -79.01897666970 0.9996678087609 -79.01897666970 0.0256477563517 22.282725245290
8.601200000000000 0.0256465118870 -0.313208010201 0.9996678166082 -79.02085004311 0.9996678166082 -79.02085004311 0.0256474430566 22.281458209336
8.601400000000000 0.0256461972250 -0.315687788379 0.9996678244877 -79.02272348998 0.9996678244877 -79.02272348998 0.0256471284915 22.280191714834
8.601600000000001 0.0256458812890 -0.318168254841 0.9996678323995 -79.02459701051 0.9996678323995 -79.02459701051 0.0256468126526 22.278925763344
8.601800000000001 0.0256455640760 -0.320649411155 0.9996678403435 -79.02647060490 0.9996678403435 -79.02647060490 0.0256464955370 22.277660356193
8.602000000000000 0.0256452455811 -0.323131260044 0.9996678483200 -79.02834427342 0.9996678483200 -79.02834427342 0.0256461771397 22.276395495619
8.602200000000000 0.0256449258022 -0.325613802736 0.9996678563290 -79.03021801620 0.9996678563290 -79.03021801620 0.0256458574586 22.275131182562
8.602400000000001 0.0256446047334 -0.328097042509 0.9996678643707 -79.03209183359 0.9996678643707 -79.03209183359 0.0256455364878 22.273867419498
8.602600000000001 0.0256442823728 -0.330580980416 0.9996678724450 -79.03396572570 0.9996678724450 -79.03396572570 0.0256452142254 22.272604207421
8.602800000000000 0.0256439587156 -0.333065619122 0.9996678805522 -79.03583969281 0.9996678805522 -79.03583969281 0.0256448906666 22.271341548355
8.603000000000000 0.0256436337586 -0.335550960451 0.9996678886922 -79.03771373511 0.9996678886922 -79.03771373511 0.0256445658082 22.270079443744
8.603200000000001 0.0256433074971 -0.338037006964 0.9996678968653 -79.03958785287 0.9996678968653 -79.03958785287 0.0256442396456 22.268817895624
8.603400000000001 0.0256429799278 -0.340523760377 0.9996679050714 -79.04146204629 0.9996679050714 -79.04146204629 0.0256439121754 22.267556905634
8.603600000000000 0.0256426510470 -0.343011222971 0.9996679133107 -79.04333631558 0.9996679133107 -79.04333631558 0.0256435833940 22.266296475241
8.603800000000000 0.0256423208501 -0.345499397327 0.9996679215833 -79.04521066101 0.9996679215833 -79.04521066101 0.0256432532966 22.265036606381
8.604000000000001 0.0256419893340 -0.347988284980 0.9996679298893 -79.04708508278 0.9996679298893 -79.04708508278 0.0256429218802 22.263777300752
8.604200000000001 0.0256416564949 -0.350477888210 0.9996679382287 -79.04895958109 0.9996679382287 -79.04895958109 0.0256425891411 22.262518559761
8.604400000000000 0.0256413223274 -0.352968209931 0.9996679466017 -79.05083415627 0.9996679466017 -79.05083415627 0.0256422550739 22.261260385807
8.604600000000001 0.0256409868297 -0.355459251125 0.9996679550084 -79.05270880842 0.9996679550084 -79.05270880842 0.0256419196767 22.260002779924
8.604800000000001 0.0256406499959 -0.357951015329 0.9996679634489 -79.05458353789 0.9996679634489 -79.05458353789 0.0256415829434 22.258745744422
8.605000000000000 0.0256403118234 -0.360443503746 0.9996679719232 -79.05645834483 0.9996679719232 -79.05645834483 0.0256412448718 22.257489280613
8.605200000000000 0.0256399723073 -0.362936719070 0.9996679804315 -79.05833322953 0.9996679804315 -79.05833322953 0.0256409054569 22.256233390712
8.605400000000001 0.0256396314442 -0.365430663352 0.9996679889739 -79.06020819219 0.9996679889739 -79.06020819219 0.0256405646952 22.254978076113
8.605600000000001 0.0256392892293 -0.367925339291 0.9996679975504 -79.06208323308 0.9996679975504 -79.06208323308 0.0256402225818 22.253723338938
8.605800000000000 0.0256389456600 -0.370420748213 0.9996680061612 -79.06395835237 0.9996680061612 -79.06395835237 0.0256398791143 22.252469180487
8.606000000000000 0.0256386007302 -0.372916893578 0.9996680148064 -79.06583355041 0.9996680148064 -79.06583355041 0.0256395342866 22.251215603263
8.606200000000001 0.0256382544374 -0.375413776833 0.9996680234861 -79.06770882735 0.9996680234861 -79.06770882735 0.0256391880960 22.249962608514
8.606400000000001 0.0256379067771 -0.377911400381 0.9996680322003 -79.06958418344 0.9996680322003 -79.06958418344 0.0256388405383 22.248710198173
8.606600000000000 0.0256375577452 -0.380409766681 0.9996680409492 -79.07145961894 0.9996680409492 -79.07145961894 0.0256384916091 22.247458374064
8.606800000000000 0.0256372073372 -0.382908877984 0.9996680497329 -79.07333513411 0.9996680497329 -79.07333513411 0.0256381413041 22.246207138242
8.607000000000001 0.0256368555493 -0.385408736621 0.9996680585515 -79.07521072916 0.9996680585515 -79.07521072916 0.0256377896194 22.244956492323
8.607200000000001 0.0256365023774 -0.387909344921 0.9996680674051 -79.07708640435 0.9996680674051 -79.07708640435 0.0256374365509 22.243706438091
8.607400000000000 0.0256361478173 -0.390410705041 0.9996680762937 -79.07896215991 0.9996680762937 -79.07896215991 0.0256370820945 22.242456977514
8.607600000000000 0.0256357918647 -0.392912819458 0.9996680852175 -79.08083799609 0.9996680852175 -79.08083799609 0.0256367262458 22.241208112448
8.607800000000001 0.0256354345154 -0.395415690659 0.9996680941767 -79.08271391315 0.9996680941767 -79.08271391315 0.0256363690007 22.239959844660
8.608000000000001 0.0256350757648 -0.397919321003 0.9996681031713 -79.08458991136 0.9996681031713 -79.08458991136 0.0256360103545 22.238712176357
8.608200000000000 0.0256347156094 -0.400423712572 0.9996681122013 -79.08646599092 0.9996681122013 -79.08646599092 0.0256356503037 22.237465108985
8.608400000000001 0.0256343540446 -0.402928867850 0.9996681212670 -79.08834215210 0.9996681212670 -79.08834215210 0.0256352888438 22.236218644668
8.608600000000001 0.0256339910661 -0.405434789389 0.9996681303684 -79.09021839515 0.9996681303684 -79.09021839515 0.0256349259705 22.234972785137
8.608800000000000 0.0256336266692 -0.407941479638 0.9996681395057 -79.09209472035 0.9996681395057 -79.09209472035 0.0256345616789 22.233727532703
8.609000000000000 0.0256332608502 -0.410448940756 0.9996681486788 -79.09397112791 0.9996681486788 -79.09397112791 0.0256341959656 22.232482888855
8.609200000000001 0.0256328936046 -0.412957175314 0.9996681578881 -79.09584761811 0.9996681578881 -79.09584761811 0.0256338288259 22.231238855590
8.609400000000001 0.0256325249277 -0.415466185935 0.9996681671335 -79.09772419121 0.9996681671335 -79.09772419121 0.0256334602550 22.229995435042
8.609600000000000 0.0256321548158 -0.417975974425 0.9996681764151 -79.09960084743 0.9996681764151 -79.09960084743 0.0256330902495 22.228752629004
8.609800000000000 0.0256317832636 -0.420486544091 0.9996681857332 -79.10147758709 0.9996681857332 -79.10147758709 0.0256327188039 22.227510439548
8.610000000000001 0.0256314102675 -0.422997896700 0.9996681950876 -79.10335441039 0.9996681950876 -79.10335441039 0.0256323459147 22.226268868470
8.610200000000001 0.0256310358232 -0.425510034982 0.9996682044787 -79.10523131759 0.9996682044787 -79.10523131759 0.0256319715774 22.225027917546
8.610400000000000 0.0256306599254 -0.428022961477 0.9996682139065 -79.10710830900 0.9996682139065 -79.10710830900 0.0256315957870 22.223787589259
8.610600000000000 0.0256302825702 -0.430536678701 0.9996682233711 -79.10898538485 0.9996682233711 -79.10898538485 0.0256312185393 22.222547885262
8.610800000000001 0.0256299037527 -0.433051189185 0.9996682328727 -79.11086254542 0.9996682328727 -79.11086254542 0.0256308398297 22.221308807697
8.611000000000001 0.0256295234692 -0.435566495090 0.9996682424112 -79.11273979093 0.9996682424112 -79.11273979093 0.0256304596543 22.220070358336
8.611200000000000 0.0256291417140 -0.438082599644 0.9996682519870 -79.11461712172 0.9996682519870 -79.11461712172 0.0256300780075 22.218832539540
8.611400000000000 0.0256287584839 -0.440599504619 0.9996682615999 -79.11649453798 0.9996682615999 -79.11649453798 0.0256296948860 22.217595352881
8.611600000000001 0.0256283737739 -0.443117212748 0.9996682712503 -79.11837203999 0.9996682712503 -79.11837203999 0.0256293102848 22.216358800611
8.611800000000001 0.0256279875786 -0.445635727122 0.9996682809381 -79.12024962808 0.9996682809381 -79.12024962808 0.0256289241987 22.215122884850
8.612000000000000 0.0256275998941 -0.448155049871 0.9996682906636 -79.12212730247 0.9996682906636 -79.12212730247 0.0256285366235 22.213887607686
8.612200000000001 0.0256272107156 -0.450675183641 0.9996683004267 -79.12400506345 0.9996683004267 -79.12400506345 0.0256281475547 22.212652971081
8.612400000000001 0.0256268200385 -0.453196131172 0.9996683102277 -79.12588291129 0.9996683102277 -79.12588291129 0.0256277569875 22.211418977012
8.612600000000000 0.0256264278588 -0.455717894566 0.9996683200667 -79.12776084621 0.9996683200667 -79.12776084621 0.0256273649180 22.210185627399
8.612800000000000 0.0256260341708 -0.458240477080 0.9996683299437 -79.12963886856 0.9996683299437 -79.12963886856 0.0256269713403 22.208952924741
8.613000000000001 0.0256256389708 -0.460763880715 0.9996683398588 -79.13151697855 0.9996683398588 -79.13151697855 0.0256265762511 22.207720870607
8.613200000000001 0.0256252422530 -0.463288108867 0.9996683498123 -79.13339517653 0.9996683498123 -79.13339517653 0.0256261796442 22.206489467642
8.613400000000000 0.0256248440131 -0.465813163820 0.9996683598043 -79.13527346274 0.9996683598043 -79.13527346274 0.0256257815155 22.205258717697
8.613600000000000 0.0256244442469 -0.468339047828 0.9996683698347 -79.13715183743 0.9996683698347 -79.13715183743 0.0256253818609 22.204028622781
8.613800000000001 0.0256240429491 -0.470865764106 0.9996683799037 -79.13903030092 0.9996683799037 -79.13903030092 0.0256249806747 22.202799185189
8.614000000000001 0.0256236401152 -0.473393315020 0.9996683900116 -79.14090885346 0.9996683900116 -79.14090885346 0.0256245779529 22.201570406817
8.614200000000000 0.0256232357400 -0.475921703579 0.9996684001584 -79.14278749536 0.9996684001584 -79.14278749536 0.0256241736900 22.200342290036
8.614400000000000 0.0256228298185 -0.478450932389 0.9996684103441 -79.14466622692 0.9996684103441 -79.14466622692 0.0256237678810 22.199114837206
8.614600000000001 0.0256224223463 -0.480981004199 0.9996684205690 -79.14654504839 0.9996684205690 -79.14654504839 0.0256233605216 22.197888050118
8.614800000000001 0.0256220133189 -0.483511921370 0.9996684308331 -79.14842396004 0.9996684308331 -79.14842396004 0.0256229516073 22.196661930794
8.615000000000000 0.0256216027303 -0.486043687189 0.9996684411366 -79.15030296222 0.9996684411366 -79.15030296222 0.0256225411321 22.195436481965
8.615200000000000 0.0256211905772 -0.488576303664 0.9996684514796 -79.15218205513 0.9996684514796 -79.15218205513 0.0256221290927 22.194211705148
8.615400000000001 0.0256207768529 -0.491109774522 0.9996684618623 -79.15406123915 0.9996684618623 -79.15406123915 0.0256217154823 22.192987603178
8.615600000000001 0.0256203615533 -0.493644102046 0.9996684722846 -79.15594051453 0.9996684722846 -79.15594051453 0.0256213002968 22.191764178015
8.615800000000000 0.0256199446735 -0.496179288861 0.9996684827469 -79.15781988155 0.9996684827469 -79.15781988155 0.0256208835315 22.190541431800
8.616000000000000 0.0256195262084 -0.498715338006 0.9996684932491 -79.15969934053 0.9996684932491 -79.15969934053 0.0256204651811 22.189319366865
8.616200000000001 0.0256191061526 -0.501252252411 0.9996685037914 -79.16157889176 0.9996685037914 -79.16157889176 0.0256200452404 22.188097985451
8.616400000000001 0.0256186845025 -0.503790034221 0.9996685143740 -79.16345853546 0.9996685143740 -79.16345853546 0.0256196237055 22.186877289320
8.616600000000000 0.0256182612504 -0.506328687464 0.9996685249969 -79.16533827209 0.9996685249969 -79.16533827209 0.0256192005691 22.185657281858
8.616800000000001 0.0256178363938 -0.508868213792 0.9996685356603 -79.16721810179 0.9996685356603 -79.16721810179 0.0256187758284 22.184437964201
8.617000000000001 0.0256174099262 -0.511408616877 0.9996685463643 -79.16909802494 0.9996685463643 -79.16909802494 0.0256183494769 22.183219339162
8.617200000000000 0.0256169818430 -0.513949899314 0.9996685571091 -79.17097804182 0.9996685571091 -79.17097804182 0.0256179215101 22.182001408803
8.617400000000000 0.0256165521388 -0.516492063991 0.9996685678948 -79.17285815274 0.9996685678948 -79.17285815274 0.0256174919226 22.180784175608
8.617600000000001 0.0256161208086 -0.519035113603 0.9996685787214 -79.17473835799 0.9996685787214 -79.17473835799 0.0256170607095 22.179567641927
8.617800000000001 0.0256156878468 -0.521579051603 0.9996685895891 -79.17661865791 0.9996685895891 -79.17661865791 0.0256166278649 22.178351810010
8.618000000000000 0.0256152532484 -0.524123880729 0.9996686004982 -79.17849905278 0.9996686004982 -79.17849905278 0.0256161933841 22.177136682122
8.618200000000000 0.0256148170088 -0.526669603267 0.9996686114486 -79.18037954287 0.9996686114486 -79.18037954287 0.0256157572624 22.175922260536
8.618400000000001 0.0256143791220 -0.529216222871 0.9996686224405 -79.18226012855 0.9996686224405 -79.18226012855 0.0256153194937 22.174708547818
8.618600000000001 0.0256139395821 -0.531763742877 0.9996686334741 -79.18414081014 0.9996686334741 -79.18414081014 0.0256148800724 22.173495546335
8.618800000000000 0.0256134983855 -0.534312165211 0.9996686445494 -79.18602158788 0.9996686445494 -79.18602158788 0.0256144389945 22.172283258086
8.619000000000000 0.0256130555255 -0.536861493607 0.9996686556667 -79.18790246215 0.9996686556667 -79.18790246215 0.0256139962535 22.171071685918
8.619200000000001 0.0256126109973 -0.539411730857 0.9996686668260 -79.18978343322 0.9996686668260 -79.18978343322 0.0256135518447 22.169860831865
8.619400000000001 0.0256121647960 -0.541962879632 0.9996686780275 -79.19166450139 0.9996686780275 -79.19166450139 0.0256131057630 22.168650698296
8.619600000000000 0.0256117169155 -0.544514943381 0.9996686892713 -79.19354566702 0.9996686892713 -79.19354566702 0.0256126580024 22.167441287889
8.619800000000000 0.0256112673498 -0.547067925534 0.9996687005575 -79.19542693046 0.9996687005575 -79.19542693046 0.0256122085570 22.166232603146
8.620000000000001 0.0256108160938 -0.549621828858 0.9996687118864 -79.19730829200 0.9996687118864 -79.19730829200 0.0256117574215 22.165024646542
8.620200000000001 0.0256103631431 -0.552176656052 0.9996687232580 -79.19918975192 0.9996687232580 -79.19918975192 0.0256113045916 22.163817419960
8.620400000000000 0.0256099084917 -0.554732410097 0.9996687346724 -79.20107131055 0.9996687346724 -79.20107131055 0.0256108500614 22.162610926176
8.620600000000001 0.0256094521332 -0.557289094935 0.9996687461298 -79.20295296828 0.9996687461298 -79.20295296828 0.0256103938243 22.161405167968
8.620800000000001 0.0256089940632 -0.559846712831 0.9996687576303 -79.20483472536 0.9996687576303 -79.20483472536 0.0256099358761 22.160200147360
8.621000000000000 0.0256085342753 -0.562405267469 0.9996687691740 -79.20671658216 0.9996687691740 -79.20671658216 0.0256094762102 22.158995867192
8.621200000000000 0.0256080727648 -0.564964761630 0.9996687807612 -79.20859853898 0.9996687807612 -79.20859853898 0.0256090148221 22.157792329443
8.621400000000001 0.0256076095253 -0.567525198640 0.9996687923919 -79.21048059617 0.9996687923919 -79.21048059617 0.0256085517052 22.156589537258
8.621600000000001 0.0256071445510 -0.570086581996 0.9996688040664 -79.21236275408 0.9996688040664 -79.21236275408 0.0256080868539 22.155387492882
8.621800000000000 0.0256066778363 -0.572648914672 0.9996688157846 -79.21424501304 0.9996688157846 -79.21424501304 0.0256076202625 22.154186199056
8.622000000000000 0.0256062093769 -0.575212199244 0.9996688275468 -79.21612737330 0.9996688275468 -79.21612737330 0.0256071519267 22.152985657670
8.622200000000001 0.0256057391652 -0.577776439819 0.9996688393531 -79.21800983531 0.9996688393531 -79.21800983531 0.0256066818390 22.151785872103
8.622400000000001 0.0256052671968 -0.580341639003 0.9996688512036 -79.21989239933 0.9996688512036 -79.21989239933 0.0256062099948 22.150586844358
8.622600000000000 0.0256047934649 -0.582907800695 0.9996688630986 -79.22177506575 0.9996688630986 -79.22177506575 0.0256057363874 22.149388577326
8.622800000000000 0.0256043179645 -0.585474927457 0.9996688750381 -79.22365783487 0.9996688750381 -79.22365783487 0.0256052610119 22.148191073538
8.623000000000001 0.0256038406891 -0.588043023258 0.9996688870223 -79.22554070707 0.9996688870223 -79.22554070707 0.0256047838616 22.146994335555
8.623200000000001 0.0256033616338 -0.590612090486 0.9996688990512 -79.22742368264 0.9996688990512 -79.22742368264 0.0256043049319 22.145798365985
8.623400000000000 0.0256028807916 -0.593182133416 0.9996689111251 -79.22930676198 0.9996689111251 -79.22930676198 0.0256038242155 22.144603167540
8.623600000000000 0.0256023981579 -0.595753154560 0.9996689232442 -79.23118994538 0.9996689232442 -79.23118994538 0.0256033417079 22.143408742553
8.623800000000001 0.0256019137252 -0.598325158081 0.9996689354085 -79.23307323326 0.9996689354085 -79.23307323326 0.0256028574017 22.142215094199
8.624000000000001 0.0256014274888 -0.600898146629 0.9996689476182 -79.23495662591 0.9996689476182 -79.23495662591 0.0256023712921 22.141022224731
8.624200000000000 0.0256009394423 -0.603472123686 0.9996689598735 -79.23684012370 0.9996689598735 -79.23684012370 0.0256018833728 22.139830137087
8.624400000000001 0.0256004495796 -0.606047092947 0.9996689721744 -79.23872372699 0.9996689721744 -79.23872372699 0.0256013936375 22.138638833857
8.624600000000001 0.0255999578941 -0.608623058031 0.9996689845213 -79.24060743617 0.9996689845213 -79.24060743617 0.0256009020798 22.137448317893
8.624800000000000 0.0255994643817 -0.611200021294 0.9996689969142 -79.24249125147 0.9996689969142 -79.24249125147 0.0256004086955 22.136258591260
8.625000000000000 0.0255989690339 -0.613777987355 0.9996690093531 -79.24437517340 0.9996690093531 -79.24437517340 0.0255999134761 22.135069657718
8.625200000000001 0.0255984718468 -0.616356958679 0.9996690218385 -79.24625920219 0.9996690218385 -79.24625920219 0.0255994164178 22.133881518905
8.625400000000001 0.0255979728130 -0.618936939066 0.9996690343701 -79.24814333826 0.9996690343701 -79.24814333826 0.0255989175131 22.132694178380
8.625600000000000 0.0255974719259 -0.621517932569 0.9996690469485 -79.25002758201 0.9996690469485 -79.25002758201 0.0255984167555 22.131507638773
8.625800000000000 0.0255969691800 -0.624099942120 0.9996690595736 -79.25191193375 0.9996690595736 -79.25191193375 0.0255979141394 22.130321902764
8.626000000000001 0.0255964645690 -0.626682971423 0.9996690722457 -79.25379639387 0.9996690722457 -79.25379639387 0.0255974096585 22.129136973134
8.626200000000001 0.0255959580869 -0.629267023607 0.9996690849647 -79.25568096271 0.9996690849647 -79.25568096271 0.0255969033068 22.127952852709
8.626400000000000 0.0255954497271 -0.631852102548 0.9996690977310 -79.25756564066 0.9996690977310 -79.25756564066 0.0255963950779 22.126769544276
8.626600000000000 0.0255949394832 -0.634438212046 0.9996691105448 -79.25945042810 0.9996691105448 -79.25945042810 0.0255958849651 22.125587050688
8.626800000000001 0.0255944273486 -0.637025355534 0.9996691234060 -79.26133532541 0.9996691234060 -79.26133532541 0.0255953729620 22.124405374981
8.627000000000001 0.0255939133182 -0.639613536025 0.9996691363150 -79.26322033288 0.9996691363150 -79.26322033288 0.0255948590635 22.123224519436
8.627200000000000 0.0255933973840 -0.642202757932 0.9996691492717 -79.26510545100 0.9996691492717 -79.26510545100 0.0255943432614 22.122044487735
8.627400000000000 0.0255928795409 -0.644793024381 0.9996691622766 -79.26699068007 0.9996691622766 -79.26699068007 0.0255938255508 22.120865281988
8.627600000000001 0.0255923597817 -0.647384339164 0.9996691753295 -79.26887602049 0.9996691753295 -79.26887602049 0.0255933059245 22.119686905597
8.627800000000001 0.0255918380992 -0.649976706280 0.9996691884308 -79.27076147270 0.9996691884308 -79.27076147270 0.0255927843753 22.118509361740
8.628000000000000 0.0255913144892 -0.652570128499 0.9996692015806 -79.27264703694 0.9996692015806 -79.27264703694 0.0255922608989 22.117332652238
8.628200000000001 0.0255907889428 -0.655164610449 0.9996692147790 -79.27453271374 0.9996692147790 -79.27453271374 0.0255917354864 22.116156781288
8.628400000000001 0.0255902614548 -0.657760155332 0.9996692280263 -79.27641850340 0.9996692280263 -79.27641850340 0.0255912081327 22.114981751037
8.628600000000000 0.0255897320178 -0.660356767155 0.9996692413225 -79.27830440636 0.9996692413225 -79.27830440636 0.0255906788304 22.113807564878
8.628800000000000 0.0255892006254 -0.662954449653 0.9996692546679 -79.28019042298 0.9996692546679 -79.28019042298 0.0255901475730 22.112634225558
8.629000000000001 0.0255886672713 -0.665553206284 0.9996692680626 -79.28207655365 0.9996692680626 -79.28207655365 0.0255896143543 22.111461736163
8.629200000000001 0.0255881319489 -0.668153040900 0.9996692815067 -79.28396279874 0.9996692815067 -79.28396279874 0.0255890791677 22.110290099478
8.629400000000000 0.0255875946508 -0.670753957571 0.9996692950005 -79.28584915870 0.9996692950005 -79.28584915870 0.0255885420057 22.109119318940
8.629600000000000 0.0255870553706 -0.673355959936 0.9996693085441 -79.28773563389 0.9996693085441 -79.28773563389 0.0255880028619 22.107949397397
8.629800000000001 0.0255865141010 -0.675959052222 0.9996693221377 -79.28962222475 0.9996693221377 -79.28962222475 0.0255874617292 22.106780337985
8.630000000000001 0.0255859708363 -0.678563237482 0.9996693357814 -79.29150893162 0.9996693357814 -79.29150893162 0.0255869186017 22.105612143540
8.630200000000000 0.0255854255692 -0.681168520065 0.9996693494754 -79.29339575491 0.9996693494754 -79.29339575491 0.0255863734722 22.104444817096
8.630400000000000 0.0255848782926 -0.683774903637 0.9996693632199 -79.29528269505 0.9996693632199 -79.29528269505 0.0255858263335 22.103278362215
8.630600000000001 0.0255843289993 -0.686382392559 0.9996693770150 -79.29716975246 0.9996693770150 -79.29716975246 0.0255852771785 22.102112781725
8.630800000000001 0.0255837776824 -0.688990990781 0.9996693908610 -79.29905692754 0.9996693908610 -79.29905692754 0.0255847260004 22.100948078727
8.631000000000000 0.0255832243355 -0.691600701701 0.9996694047580 -79.30094422068 0.9996694047580 -79.30094422068 0.0255841727925 22.099784256479
8.631200000000000 0.0255826689517 -0.694211529409 0.9996694187061 -79.30283163227 0.9996694187061 -79.30283163227 0.0255836175481 22.098621317847
8.631400000000001 0.0255821115228 -0.696823478310 0.9996694327055 -79.30471916280 0.9996694327055 -79.30471916280 0.0255830602591 22.097459266615
8.631600000000001 0.0255815520430 -0.699436551988 0.9996694467565 -79.30660681261 0.9996694467565 -79.30660681261 0.0255825009194 22.096298105279
8.631800000000000 0.0255809905045 -0.702050754528 0.9996694608591 -79.30849458215 0.9996694608591 -79.30849458215 0.0255819395216 22.095137837478
8.632000000000000 0.0255804269005 -0.704666090135 0.9996694750137 -79.31038247182 0.9996694750137 -79.31038247182 0.0255813760585 22.093978466187
8.632200000000001 0.0255798612237 -0.707282562652 0.9996694892202 -79.31227048206 0.9996694892202 -79.31227048206 0.0255808105232 22.092819994762
8.632400000000001 0.0255792934664 -0.709900176591 0.9996695034790 -79.31415861331 0.9996695034790 -79.31415861331 0.0255802429076 22.091662426612
8.632600000000000 0.0255787236226 -0.712518935288 0.9996695177902 -79.31604686594 0.9996695177902 -79.31604686594 0.0255796732060 22.090505764566
8.632800000000001 0.0255781516832 -0.715138843901 0.9996695321540 -79.31793524047 0.9996695321540 -79.31793524046 0.0255791014090 22.089350012661
8.633000000000001 0.0255775776425 -0.717759905595 0.9996695465704 -79.31982373722 0.9996695465704 -79.31982373722 0.0255785275113 22.088195173476
8.633200000000000 0.0255770014929 -0.720382124954 0.9996695610399 -79.32171235667 0.9996695610399 -79.32171235667 0.0255779515050 22.087041250276
8.633400000000000 0.0255764232257 -0.723005506516 0.9996695755625 -79.32360109930 0.9996695755625 -79.32360109930 0.0255773733816 22.085888247219
8.633600000000001 0.0255758428352 -0.725630053814 0.9996695901384 -79.32548996547 0.9996695901384 -79.32548996547 0.0255767931352 22.084736166751
8.633800000000001 0.0255752603132 -0.728255771224 0.9996696047677 -79.32737895564 0.9996696047677 -79.32737895564 0.0255762107577 22.083585012802
8.634000000000000 0.0255746756527 -0.730882663037 0.9996696194507 -79.32926807024 0.9996696194507 -79.32926807024 0.0255756262421 22.082434788185
8.634200000000000 0.0255740888438 -0.733510734504 0.9996696341876 -79.33115730984 0.9996696341876 -79.33115730984 0.0255750395785 22.081285497612
8.634400000000001 0.0255734998826 -0.736139988221 0.9996696489785 -79.33304667467 0.9996696489785 -79.33304667467 0.0255744507631 22.080137142637
8.634600000000001 0.0255729087595 -0.738770429266 0.9996696638237 -79.33493616529 0.9996696638237 -79.33493616529 0.0255738597861 22.078989727914
8.634800000000000 0.0255723154665 -0.741402062390 0.9996696787232 -79.33682578218 0.9996696787232 -79.33682578218 0.0255732666396 22.077843256849
8.635000000000000 0.0255717199981 -0.744034890687 0.9996696936773 -79.33871552565 0.9996696936773 -79.33871552565 0.0255726713182 22.076697731960
8.635200000000001 0.0255711223434 -0.746668920371 0.9996697086864 -79.34060539636 0.9996697086864 -79.34060539636 0.0255720738108 22.075553158035
8.635400000000001 0.0255705224970 -0.749304154280 0.9996697237502 -79.34249539460 0.9996697237502 -79.34249539460 0.0255714741122 22.074409537834
8.635600000000000 0.0255699204505 -0.751940597629 0.9996697388694 -79.34438552089 0.9996697388694 -79.34438552089 0.0255708722139 22.073266874742
8.635800000000000 0.0255693161960 -0.754578254352 0.9996697540439 -79.34627577567 0.9996697540439 -79.34627577567 0.0255702681081 22.072125172763
8.636000000000001 0.0255687097256 -0.757217129274 0.9996697692739 -79.34816615942 0.9996697692739 -79.34816615942 0.0255696617867 22.070984435264
8.636200000000001 0.0255681010320 -0.759857226451 0.9996697845597 -79.35005667256 0.9996697845597 -79.35005667256 0.0255690532426 22.069844665503
8.636400000000000 0.0255674901060 -0.762498551131 0.9996697999015 -79.35194731564 0.9996697999015 -79.35194731564 0.0255684424665 22.068705867666
8.636600000000001 0.0255668769409 -0.765141107156 0.9996698152994 -79.35383808905 0.9996698152994 -79.35383808905 0.0255678294516 22.067568044841
8.636800000000001 0.0255662615286 -0.767784899005 0.9996698307536 -79.35572899326 0.9996698307536 -79.35572899326 0.0255672141901 22.066431200742
8.637000000000000 0.0255656438599 -0.770429931883 0.9996698462644 -79.35762002881 0.9996698462644 -79.35762002881 0.0255665966726 22.065295339412
8.637200000000000 0.0255650239278 -0.773076210025 0.9996698618319 -79.35951119612 0.9996698618319 -79.35951119612 0.0255659768921 22.064160463993
8.637400000000001 0.0255644017238 -0.775723738019 0.9996698774564 -79.36140249568 0.9996698774564 -79.36140249568 0.0255653548401 22.063026578493
8.637600000000001 0.0255637772402 -0.778372520311 0.9996698931380 -79.36329392794 0.9996698931380 -79.36329392794 0.0255647305089 22.061893686289
8.637800000000000 0.0255631504679 -0.781022562015 0.9996699088769 -79.36518549344 0.9996699088769 -79.36518549344 0.0255641038896 22.060761791524
8.638000000000000 0.0255625213995 -0.783673867259 0.9996699246733 -79.36707719262 0.9996699246733 -79.36707719262 0.0255634749745 22.059630897727
8.638200000000001 0.0255618900268 -0.786326440971 0.9996699405275 -79.36896902596 0.9996699405275 -79.36896902596 0.0255628437556 22.058501008322
8.638400000000001 0.0255612563409 -0.788980288095 0.9996699564397 -79.37086099397 0.9996699564397 -79.37086099397 0.0255622102239 22.057372127497
8.638600000000000 0.0255606203330 -0.791635413548 0.9996699724100 -79.37275309718 0.9996699724100 -79.37275309718 0.0255615743706 22.056244259157
8.638800000000000 0.0255599819965 -0.794291821166 0.9996699884387 -79.37464533597 0.9996699884387 -79.37464533597 0.0255609361892 22.055117406412
8.639000000000001 0.0255593413209 -0.796949516743 0.9996700045259 -79.37653771096 0.9996700045259 -79.37653771096 0.0255602956692 22.053991574013
8.639200000000001 0.0255586982994 -0.799608504411 0.9996700206720 -79.37843022255 0.9996700206720 -79.37843022255 0.0255596528038 22.052866764936
8.639400000000000 0.0255580529223 -0.802268789549 0.9996700368770 -79.38032287131 0.9996700368770 -79.38032287131 0.0255590075831 22.051742983675
8.639600000000000 0.0255574051811 -0.804930377029 0.9996700531412 -79.38221565773 0.9996700531412 -79.38221565773 0.0255583599989 22.050620233926
8.639800000000001 0.0255567550680 -0.807593271216 0.9996700694648 -79.38410858227 0.9996700694648 -79.38410858227 0.0255577100432 22.049498519478
8.640000000000001 0.0255561025740 -0.810257477306 0.9996700858481 -79.38600164547 0.9996700858481 -79.38600164547 0.0255570577070 22.048377844270
8.640200000000000 0.0255554476898 -0.812923000477 0.9996701022911 -79.38789484788 0.9996701022911 -79.38789484788 0.0255564029811 22.047258212665