! Sonnet Data File
! From: emgraph Version : 16.52
! From Project: 171117_Xmon_fullysym
! Data is De-embedded 
! Data File Written: 11/26/2017 21:44:48
!< HDATE 11/26/2017 17:24:49
!< MDATE 11/26/2017 17:24:49
!< PARAMS
!< Lj = 11.0
!< Gap = 1.0
!< Pwid = 2000.0
!< Airgap = 6.0
!< Width = 10.0
!< Lj1 = 12.0
!< END PARAMS
# GHZ S MA R 50.90000
8.600000000000001 0.0260630836328 -0.114318222208 0.9996570104216 -78.98548498453 0.9996570104216 -78.98548498481 0.0260640134798 22.153285633249
!< P1 F=8.6 Eeff=(6.44845572 -2.9799e-5) Z0=(50.9087207 1.17006e-4) R=0.0 C=0.0 
!< P2 F=8.6 Eeff=(6.44845572 -2.9799e-5) Z0=(50.9087207 1.17006e-4) R=0.0 C=0.0 
8.600200000000001 0.0260624178967 -0.116944220715 0.9996570276421 -78.98737883051 0.9996570276421 -78.98737883051 0.0260633478599 22.152124583556
8.600400000000000 0.0260617512378 -0.119570798789 0.9996570448597 -78.98927273193 0.9996570448597 -78.98927273193 0.0260626812976 22.150963968370
8.600600000000000 0.0260610836196 -0.122197932466 0.9996570621013 -78.99116668877 0.9996570621013 -78.99116668877 0.0260620137761 22.149803800416
8.600800000000001 0.0260604150386 -0.124825623392 0.9996570793672 -78.99306070122 0.9996570793672 -78.99306070122 0.0260613452922 22.148644081281
8.601000000000001 0.0260597454891 -0.127453874689 0.9996570966573 -78.99495476960 0.9996570966573 -78.99495476960 0.0260606758400 22.147484813112
8.601200000000000 0.0260590749669 -0.130082688464 0.9996571139720 -78.99684889418 0.9996571139720 -78.99684889418 0.0260600054153 22.146325997740
8.601400000000000 0.0260584034659 -0.132712067744 0.9996571313111 -78.99874307530 0.9996571313111 -78.99874307530 0.0260593340121 22.145167637726
8.601600000000001 0.0260577309810 -0.135342015397 0.9996571486750 -79.00063731327 0.9996571486750 -79.00063731327 0.0260586616253 22.144009734874
8.601800000000001 0.0260570575079 -0.137972533661 0.9996571660637 -79.00253160833 0.9996571660637 -79.00253160833 0.0260579882505 22.142852291017
8.602000000000000 0.0260563830399 -0.140603625880 0.9996571834775 -79.00442596088 0.9996571834775 -79.00442596088 0.0260573138810 22.141695308912
8.602200000000000 0.0260557075740 -0.143235293674 0.9996572009163 -79.00632037109 0.9996572009163 -79.00632037109 0.0260566385139 22.140538789791
8.602400000000001 0.0260550311025 -0.145867541134 0.9996572183804 -79.00821483942 0.9996572183804 -79.00821483942 0.0260559621415 22.139382736654
8.602600000000001 0.0260543536224 -0.148500369734 0.9996572358698 -79.01010936604 0.9996572358698 -79.01010936604 0.0260552847607 22.138227150812
8.602800000000000 0.0260536751274 -0.151133782803 0.9996572533847 -79.01200395132 0.9996572533847 -79.01200395132 0.0260546063653 22.137072034811
8.603000000000000 0.0260529956127 -0.153767782833 0.9996572709253 -79.01389859554 0.9996572709253 -79.01389859554 0.0260539269504 22.135917390534
8.603200000000001 0.0260523150726 -0.156402372817 0.9996572884917 -79.01579329903 0.9996572884917 -79.01579329903 0.0260532465104 22.134763220382
8.603400000000001 0.0260516335021 -0.159037555140 0.9996573060839 -79.01768806208 0.9996573060839 -79.01768806208 0.0260525650403 22.133609526454
8.603600000000000 0.0260509508961 -0.161673332735 0.9996573237022 -79.01958288501 0.9996573237022 -79.01958288501 0.0260518825350 22.132456310655
8.603800000000000 0.0260502672487 -0.164309708740 0.9996573413466 -79.02147776814 0.9996573413466 -79.02147776814 0.0260511989884 22.131303575358
8.604000000000001 0.0260495825554 -0.166946685219 0.9996573590174 -79.02337271175 0.9996573590174 -79.02337271175 0.0260505143962 22.130151322668
8.604200000000001 0.0260488968113 -0.169584264972 0.9996573767145 -79.02526771612 0.9996573767145 -79.02526771612 0.0260498287535 22.128999554301
8.604400000000000 0.0260482100090 -0.172222451745 0.9996573944383 -79.02716278168 0.9996573944383 -79.02716278168 0.0260491420528 22.127848273364
8.604600000000001 0.0260475221460 -0.174861246814 0.9996574121887 -79.02905790858 0.9996574121887 -79.02905790858 0.0260484542917 22.126697480991
8.604800000000001 0.0260468332142 -0.177500654598 0.9996574299661 -79.03095309730 0.9996574299661 -79.03095309730 0.0260477654621 22.125547180193
8.605000000000000 0.0260461432105 -0.180140676547 0.9996574477704 -79.03284834801 0.9996574477704 -79.03284834801 0.0260470755609 22.124397372467
8.605200000000000 0.0260454521279 -0.182781316312 0.9996574656018 -79.03474366113 0.9996574656018 -79.03474366113 0.0260463845810 22.123248060711
8.605400000000001 0.0260447599623 -0.185422576146 0.9996574834604 -79.03663903689 0.9996574834604 -79.03663903689 0.0260456925184 22.122099246446
8.605600000000001 0.0260440667066 -0.188064459794 0.9996575013465 -79.03853447571 0.9996575013465 -79.03853447571 0.0260449993660 22.120950932518
8.605800000000000 0.0260433723579 -0.190706968655 0.9996575192600 -79.04042997777 0.9996575192600 -79.04042997777 0.0260443051207 22.119803120417
8.606000000000000 0.0260426769077 -0.193350107216 0.9996575372013 -79.04232554356 0.9996575372013 -79.04232554356 0.0260436097744 22.118655813245
8.606200000000001 0.0260419803529 -0.195993877211 0.9996575551703 -79.04422117326 0.9996575551703 -79.04422117326 0.0260429133235 22.117509012522
8.606400000000001 0.0260412826872 -0.198638281753 0.9996575731673 -79.04611686723 0.9996575731673 -79.04611686723 0.0260422157622 22.116362720708
8.606600000000000 0.0260405839052 -0.201283323890 0.9996575911924 -79.04801262580 0.9996575911924 -79.04801262580 0.0260415170848 22.115216939998
8.606800000000000 0.0260398840011 -0.203929006453 0.9996576092456 -79.04990844931 0.9996576092456 -79.04990844931 0.0260408172856 22.114071672947
8.607000000000001 0.0260391829699 -0.206575332226 0.9996576273273 -79.05180433805 0.9996576273273 -79.05180433805 0.0260401163595 22.112926921433
8.607200000000001 0.0260384808055 -0.209222304328 0.9996576454374 -79.05370029236 0.9996576454374 -79.05370029236 0.0260394143006 22.111782687911
8.607400000000000 0.0260377775031 -0.211869925313 0.9996576635762 -79.05559631255 0.9996576635762 -79.05559631255 0.0260387111039 22.110638974500
8.607600000000000 0.0260370730565 -0.214518198417 0.9996576817438 -79.05749239896 0.9996576817438 -79.05749239896 0.0260380067632 22.109495783685
8.607800000000001 0.0260363674606 -0.217167126452 0.9996576999403 -79.05938855191 0.9996576999403 -79.05938855191 0.0260373012736 22.108353117479
8.608000000000001 0.0260356607088 -0.219816712697 0.9996577181658 -79.06128477177 0.9996577181658 -79.06128477177 0.0260365946283 22.107210978712
8.608200000000000 0.0260349527969 -0.222466959522 0.9996577364206 -79.06318105879 0.9996577364206 -79.06318105879 0.0260358868231 22.106069369032
8.608400000000001 0.0260342437184 -0.225117870141 0.9996577547047 -79.06507741335 0.9996577547047 -79.06507741335 0.0260351778517 22.104928291183
8.608600000000001 0.0260335334679 -0.227769447652 0.9996577730183 -79.06697383576 0.9996577730183 -79.06697383576 0.0260344677087 22.103787747178
8.608800000000000 0.0260328220393 -0.230421695068 0.9996577913615 -79.06887032639 0.9996577913615 -79.06887032639 0.0260337563877 22.102647739823
8.609000000000000 0.0260321094274 -0.233074615192 0.9996578097346 -79.07076688554 0.9996578097346 -79.07076688554 0.0260330438837 22.101508271065
8.609200000000001 0.0260313956267 -0.235728211067 0.9996578281375 -79.07266351354 0.9996578281375 -79.07266351354 0.0260323301912 22.100369343190
8.609400000000001 0.0260306806305 -0.238382486039 0.9996578465706 -79.07456021076 0.9996578465706 -79.07456021076 0.0260316153035 22.099230958895
8.609600000000000 0.0260299644347 -0.241037442209 0.9996578650338 -79.07645697746 0.9996578650338 -79.07645697746 0.0260308992165 22.098093120196
8.609800000000000 0.0260292470316 -0.243693083870 0.9996578835274 -79.07835381408 0.9996578835274 -79.07835381408 0.0260301819224 22.096955829870
8.610000000000001 0.0260285284169 -0.246349413041 0.9996579020514 -79.08025072088 0.9996579020514 -79.08025072088 0.0260294634171 22.095819089914
8.610200000000001 0.0260278085848 -0.249006433140 0.9996579206062 -79.08214769819 0.9996579206062 -79.08214769819 0.0260287436946 22.094682902553
8.610400000000000 0.0260270875287 -0.251664147256 0.9996579391917 -79.08404474641 0.9996579391917 -79.08404474641 0.0260280227484 22.093547270731
8.610600000000000 0.0260263652429 -0.254322558614 0.9996579578082 -79.08594186586 0.9996579578082 -79.08594186586 0.0260273005729 22.092412196565
8.610800000000001 0.0260256417219 -0.256981670130 0.9996579764558 -79.08783905688 0.9996579764558 -79.08783905688 0.0260265771623 22.091277682514
8.611000000000001 0.0260249169599 -0.259641484724 0.9996579951346 -79.08973631979 0.9996579951346 -79.08973631979 0.0260258525111 22.090143730895
8.611200000000000 0.0260241909504 -0.262302006056 0.9996580138448 -79.09163365498 0.9996580138448 -79.09163365498 0.0260251266127 22.089010344327
8.611400000000000 0.0260234636883 -0.264963236608 0.9996580325866 -79.09353106274 0.9996580325866 -79.09353106274 0.0260243994620 22.087877524971
8.611600000000001 0.0260227351678 -0.267625179519 0.9996580513599 -79.09542854343 0.9996580513599 -79.09542854343 0.0260236710532 22.086745275394
8.611800000000001 0.0260220053821 -0.270287838557 0.9996580701653 -79.09732609743 0.9996580701653 -79.09732609743 0.0260229413794 22.085613598079
8.612000000000000 0.0260212743255 -0.272951216418 0.9996580890025 -79.09922372508 0.9996580890025 -79.09922372508 0.0260222104351 22.084482495693
8.612200000000001 0.0260205419920 -0.275615316381 0.9996581078718 -79.10112142673 0.9996581078718 -79.10112142673 0.0260214782142 22.083351970628
8.612400000000001 0.0260198083760 -0.278280141689 0.9996581267735 -79.10301920271 0.9996581267735 -79.10301920271 0.0260207447111 22.082222025048
8.612600000000000 0.0260190734719 -0.280945695000 0.9996581457076 -79.10491705334 0.9996581457076 -79.10491705334 0.0260200099201 22.081092661467
8.612800000000000 0.0260183372724 -0.283611980293 0.9996581646743 -79.10681497906 0.9996581646743 -79.10681497906 0.0260192738341 22.079963882838
8.613000000000001 0.0260175997730 -0.286278999965 0.9996581836738 -79.10871298013 0.9996581836738 -79.10871298013 0.0260185364485 22.078835691010
8.613200000000001 0.0260168609661 -0.288946758072 0.9996582027061 -79.11061105699 0.9996582027061 -79.11061105699 0.0260177977556 22.077708089141
8.613400000000000 0.0260161208463 -0.291615257477 0.9996582217716 -79.11250920997 0.9996582217716 -79.11250920997 0.0260170577501 22.076581079472
8.613600000000000 0.0260153794079 -0.294284501005 0.9996582408701 -79.11440743938 0.9996582408701 -79.11440743938 0.0260163164265 22.075454664441
8.613800000000001 0.0260146366443 -0.296954492352 0.9996582600021 -79.11630574562 0.9996582600021 -79.11630574562 0.0260155737779 22.074328846776
8.614000000000001 0.0260138925498 -0.299625234604 0.9996582791675 -79.11820412903 0.9996582791675 -79.11820412903 0.0260148297986 22.073203628758
8.614200000000000 0.0260131471177 -0.302296731269 0.9996582983667 -79.12010259000 0.9996582983667 -79.12010259000 0.0260140844821 22.072079013150
8.614400000000000 0.0260124003416 -0.304968985588 0.9996583175996 -79.12200112890 0.9996583175996 -79.12200112890 0.0260133378219 22.070955002861
8.614600000000001 0.0260116522157 -0.307642000836 0.9996583368666 -79.12389974606 0.9996583368666 -79.12389974606 0.0260125898122 22.069831599994
8.614800000000001 0.0260109027345 -0.310315779895 0.9996583561677 -79.12579844182 0.9996583561677 -79.12579844182 0.0260118404475 22.068708806960
8.615000000000000 0.0260101518902 -0.312990326836 0.9996583755031 -79.12769721663 0.9996583755031 -79.12769721663 0.0260110897200 22.067586627090
8.615200000000000 0.0260093996785 -0.315665643971 0.9996583948729 -79.12959607074 0.9996583948729 -79.12959607074 0.0260103376255 22.066465062094
8.615400000000001 0.0260086460914 -0.318341735704 0.9996584142774 -79.13149500463 0.9996584142774 -79.13149500463 0.0260095841558 22.065344115292
8.615600000000001 0.0260078911231 -0.321018604979 0.9996584337166 -79.13339401862 0.9996584337166 -79.13339401862 0.0260088293053 22.064223789124
8.615800000000000 0.0260071347676 -0.323696254942 0.9996584531907 -79.13529311307 0.9996584531907 -79.13529311307 0.0260080730679 22.063104086137
8.616000000000000 0.0260063770185 -0.326374689124 0.9996584727000 -79.13719228837 0.9996584727000 -79.13719228837 0.0260073154372 22.061985009036
8.616200000000001 0.0260056178688 -0.329053911204 0.9996584922444 -79.13909154491 0.9996584922444 -79.13909154491 0.0260065564062 22.060866560580
8.616400000000001 0.0260048573138 -0.331733923736 0.9996585118243 -79.14099088297 0.9996585118243 -79.14099088297 0.0260057959702 22.059748742825
8.616600000000000 0.0260040953443 -0.334414731427 0.9996585314398 -79.14289030309 0.9996585314398 -79.14289030309 0.0260050341202 22.058631559681
8.616800000000001 0.0260033319567 -0.337096336446 0.9996585510909 -79.14478980549 0.9996585510909 -79.14478980549 0.0260042708523 22.057515012602
8.617000000000001 0.0260025671430 -0.339778743004 0.9996585707780 -79.14668939062 0.9996585707780 -79.14668939062 0.0260035061586 22.056399104877
8.617200000000000 0.0260018008972 -0.342461954393 0.9996585905012 -79.14858905885 0.9996585905012 -79.14858905885 0.0260027400330 22.055283838994
8.617400000000000 0.0260010332126 -0.345145974043 0.9996586102606 -79.15048881057 0.9996586102606 -79.15048881057 0.0260019724691 22.054169217791
8.617600000000001 0.0260002640829 -0.347830805139 0.9996586300563 -79.15238864614 0.9996586300563 -79.15238864614 0.0260012034603 22.053055244194
8.617800000000001 0.0259994935010 -0.350516451793 0.9996586498887 -79.15428856597 0.9996586498887 -79.15428856597 0.0260004329998 22.051941920724
8.618000000000000 0.0259987214608 -0.353202917250 0.9996586697577 -79.15618857044 0.9996586697577 -79.15618857044 0.0259996610812 22.050829250094
8.618200000000000 0.0259979479563 -0.355890204387 0.9996586896636 -79.15808865988 0.9996586896636 -79.15808865988 0.0259988876987 22.049717235037
8.618400000000001 0.0259971729798 -0.358578317561 0.9996587096065 -79.15998883475 0.9996587096065 -79.15998883475 0.0259981128445 22.048605878573
8.618600000000001 0.0259963965246 -0.361267260551 0.9996587295867 -79.16188909545 0.9996587295867 -79.16188909545 0.0259973365120 22.047495183388
8.618800000000000 0.0259956185854 -0.363957035890 0.9996587496042 -79.16378944228 0.9996587496042 -79.16378944228 0.0259965586957 22.046385151977
8.619000000000000 0.0259948391543 -0.366647647875 0.9996587696593 -79.16568987571 0.9996587696593 -79.16568987571 0.0259957793878 22.045275787593
8.619200000000001 0.0259940582252 -0.369339099847 0.9996587897521 -79.16759039609 0.9996587897521 -79.16759039609 0.0259949985824 22.044167092621
8.619400000000001 0.0259932757918 -0.372031395129 0.9996588098828 -79.16949100379 0.9996588098828 -79.16949100379 0.0259942162730 22.043059069947
8.619600000000000 0.0259924918466 -0.374724537699 0.9996588300515 -79.17139169926 0.9996588300515 -79.17139169926 0.0259934324521 22.041951722606
8.619800000000000 0.0259917063823 -0.377418531624 0.9996588502585 -79.17329248291 0.9996588502585 -79.17329248291 0.0259926471124 22.040845053548
8.620000000000001 0.0259909193923 -0.380113380212 0.9996588705039 -79.17519335515 0.9996588705039 -79.17519335515 0.0259918602474 22.039739065741
8.620200000000001 0.0259901308711 -0.382809086708 0.9996588907879 -79.17709431627 0.9996588907879 -79.17709431627 0.0259910718515 22.038633761301
8.620400000000000 0.0259893408114 -0.385505654663 0.9996589111105 -79.17899536673 0.9996589111105 -79.17899536673 0.0259902819175 22.037529143642
8.620600000000001 0.0259885492051 -0.388203088689 0.9996589314721 -79.18089650699 0.9996589314721 -79.18089650699 0.0259894904372 22.036425215842
8.620800000000001 0.0259877560468 -0.390901391496 0.9996589518728 -79.18279773736 0.9996589518728 -79.18279773736 0.0259886974053 22.035321980364
8.621000000000000 0.0259869613287 -0.393600567451 0.9996589723127 -79.18469905832 0.9996589723127 -79.18469905832 0.0259879028138 22.034219440462
8.621200000000000 0.0259861650446 -0.396300619884 0.9996589927921 -79.18660047021 0.9996589927921 -79.18660047021 0.0259871066568 22.033117598567
8.621400000000001 0.0259853671868 -0.399001552665 0.9996590133110 -79.18850197348 0.9996590133110 -79.18850197348 0.0259863089265 22.032016458259
8.621600000000001 0.0259845677483 -0.401703369955 0.9996590338698 -79.19040356856 0.9996590338698 -79.19040356856 0.0259855096157 22.030916022127
8.621800000000000 0.0259837667220 -0.404406075228 0.9996590544685 -79.19230525585 0.9996590544685 -79.19230525585 0.0259847087175 22.029816293438
8.622000000000000 0.0259829641023 -0.407109671697 0.9996590751074 -79.19420703569 0.9996590751074 -79.19420703569 0.0259839062262 22.028717274461
8.622200000000001 0.0259821598804 -0.409814163977 0.9996590957865 -79.19610890859 0.9996590957865 -79.19610890859 0.0259831021331 22.027618968968
8.622400000000001 0.0259813540504 -0.412519555260 0.9996591165061 -79.19801087489 0.9996591165061 -79.19801087489 0.0259822964323 22.026521379423
8.622600000000000 0.0259805466041 -0.415225850150 0.9996591372665 -79.19991293508 0.9996591372665 -79.19991293508 0.0259814891155 22.025424509092
8.622800000000000 0.0259797375353 -0.417933051594 0.9996591580676 -79.20181508951 0.9996591580676 -79.20181508951 0.0259806801766 22.024328360990
8.623000000000001 0.0259789268357 -0.420641164418 0.9996591789099 -79.20371733868 0.9996591789099 -79.20371733868 0.0259798696073 22.023232938162
8.623200000000001 0.0259781145000 -0.423350191179 0.9996591997932 -79.20561968290 0.9996591997932 -79.20561968290 0.0259790574022 22.022138243441
8.623400000000000 0.0259773005190 -0.426060137121 0.9996592207180 -79.20752212270 0.9996592207180 -79.20752212270 0.0259782435522 22.021044280184
8.623600000000000 0.0259764848871 -0.428771005181 0.9996592416844 -79.20942465842 0.9996592416844 -79.20942465842 0.0259774280515 22.019951050992
8.623800000000001 0.0259756675953 -0.431482800165 0.9996592626925 -79.21132729058 0.9996592626925 -79.21132729058 0.0259766108914 22.018858559552
8.624000000000001 0.0259748486378 -0.434195525162 0.9996592837426 -79.21323001952 0.9996592837426 -79.21323001952 0.0259757920660 22.017766808490
8.624200000000000 0.0259740280066 -0.436909184373 0.9996593048347 -79.21513284570 0.9996593048347 -79.21513284570 0.0259749715673 22.016675801239
8.624400000000001 0.0259732056942 -0.439623782049 0.9996593259692 -79.21703576958 0.9996593259692 -79.21703576958 0.0259741493877 22.015585540786
8.624600000000001 0.0259723816929 -0.442339322399 0.9996593471462 -79.21893879160 0.9996593471462 -79.21893879160 0.0259733255196 22.014496030377
8.624800000000000 0.0259715559973 -0.445055808253 0.9996593683658 -79.22084191207 0.9996593683658 -79.22084191207 0.0259724999575 22.013407272457
8.625000000000000 0.0259707285971 -0.447773245017 0.9996593896283 -79.22274513161 0.9996593896283 -79.22274513161 0.0259716726912 22.012319271402
8.625200000000001 0.0259698994877 -0.450491635519 0.9996594109339 -79.22464845047 0.9996594109339 -79.22464845047 0.0259708437160 22.011232029009
8.625400000000001 0.0259690686598 -0.453210984242 0.9996594322826 -79.22655186921 0.9996594322826 -79.22655186921 0.0259700130228 22.010145549540
8.625600000000000 0.0259682361055 -0.455931295940 0.9996594536749 -79.22845538829 0.9996594536749 -79.22845538829 0.0259691806036 22.009059835947
8.625800000000000 0.0259674018183 -0.458652573986 0.9996594751107 -79.23035900809 0.9996594751107 -79.23035900809 0.0259683464518 22.007974891224
8.626000000000001 0.0259665657901 -0.461374822744 0.9996594965903 -79.23226272908 0.9996594965903 -79.23226272908 0.0259675105594 22.006890718743
8.626200000000001 0.0259657280139 -0.464098045852 0.9996595181139 -79.23416655168 0.9996595181139 -79.23416655168 0.0259666729193 22.005807321714
8.626400000000000 0.0259648884817 -0.466822247775 0.9996595396817 -79.23607047635 0.9996595396817 -79.23607047635 0.0259658335238 22.004724703281
8.626600000000000 0.0259640471853 -0.469547433074 0.9996595612939 -79.23797450357 0.9996595612939 -79.23797450357 0.0259649923643 22.003642866887
8.626800000000001 0.0259632041173 -0.472273605609 0.9996595829506 -79.23987863378 0.9996595829506 -79.23987863378 0.0259641494336 22.002561815811
8.627000000000001 0.0259623592712 -0.475000768899 0.9996596046521 -79.24178286736 0.9996596046521 -79.24178286736 0.0259633047253 22.001481552831
8.627200000000000 0.0259615126372 -0.477728928171 0.9996596263986 -79.24368720488 0.9996596263986 -79.24368720488 0.0259624582295 22.000402082162
8.627400000000000 0.0259606642092 -0.480458087032 0.9996596481902 -79.24559164671 0.9996596481902 -79.24559164671 0.0259616099399 21.999323406231
8.627600000000001 0.0259598139786 -0.483188249822 0.9996596700272 -79.24749619333 0.9996596700272 -79.24749619333 0.0259607598483 21.998245528879
8.627800000000001 0.0259589619367 -0.485919421286 0.9996596919097 -79.24940084528 0.9996596919097 -79.24940084528 0.0259599079456 21.997168453863
8.628000000000000 0.0259581080782 -0.488651604519 0.9996597138379 -79.25130560285 0.9996597138379 -79.25130560285 0.0259590542268 21.996092183177
8.628200000000001 0.0259572523926 -0.491384804947 0.9996597358121 -79.25321046666 0.9996597358121 -79.25321046666 0.0259581986813 21.995016721672
8.628400000000001 0.0259563948733 -0.494119026359 0.9996597578324 -79.25511543710 0.9996597578324 -79.25511543710 0.0259573413025 21.993942071822
8.628600000000000 0.0259555355116 -0.496854273261 0.9996597798990 -79.25702051467 0.9996597798990 -79.25702051467 0.0259564820817 21.992868237549
8.628800000000000 0.0259546742998 -0.499590550136 0.9996598020122 -79.25892569983 0.9996598020122 -79.25892569983 0.0259556210112 21.991795221979
8.629000000000001 0.0259538112303 -0.502327860812 0.9996598241721 -79.26083099303 0.9996598241721 -79.26083099303 0.0259547580834 21.990723028565
8.629200000000001 0.0259529462950 -0.505066209907 0.9996598463789 -79.26273639474 0.9996598463789 -79.26273639474 0.0259538932902 21.989651660631
8.629400000000000 0.0259520794851 -0.507805602026 0.9996598686329 -79.26464190547 0.9996598686329 -79.26464190547 0.0259530266228 21.988581122026
8.629600000000000 0.0259512107929 -0.510546041416 0.9996598909342 -79.26654752568 0.9996598909342 -79.26654752568 0.0259521580735 21.987511415992
8.629800000000001 0.0259503402096 -0.513287532948 0.9996599132831 -79.26845325588 0.9996599132831 -79.26845325588 0.0259512876336 21.986442546169
8.630000000000001 0.0259494677284 -0.516030080184 0.9996599356797 -79.27035909648 0.9996599356797 -79.27035909648 0.0259504152961 21.985374515806
8.630200000000000 0.0259485933405 -0.518773688073 0.9996599581243 -79.27226504798 0.9996599581243 -79.27226504798 0.0259495410523 21.984307328305
8.630400000000000 0.0259477170373 -0.521518360889 0.9996599806170 -79.27417111088 0.9996599806170 -79.27417111088 0.0259486648938 21.983240987774
8.630600000000001 0.0259468388103 -0.524264103691 0.9996600031580 -79.27607728570 0.9996600031580 -79.27607728570 0.0259477868118 21.982175497481
8.630800000000001 0.0259459586513 -0.527010921026 0.9996600257478 -79.27798357292 0.9996600257478 -79.27798357292 0.0259469067981 21.981110860873
8.631000000000000 0.0259450765524 -0.529758816792 0.9996600483863 -79.27988997298 0.9996600483863 -79.27988997298 0.0259460248450 21.980047081724
8.631200000000000 0.0259441925054 -0.532507795634 0.9996600710737 -79.28179648638 0.9996600710737 -79.28179648638 0.0259451409443 21.978984163291
8.631400000000001 0.0259433065007 -0.535257862723 0.9996600938103 -79.28370311368 0.9996600938103 -79.28370311368 0.0259442550862 21.977922109879
8.631600000000001 0.0259424185310 -0.538009022145 0.9996601165964 -79.28560985530 0.9996601165964 -79.28560985530 0.0259433672637 21.976860924391
8.631800000000000 0.0259415285875 -0.540761278584 0.9996601394321 -79.28751671176 0.9996601394321 -79.28751671176 0.0259424774677 21.975800610817
8.632000000000000 0.0259406366615 -0.543514636900 0.9996601623176 -79.28942368357 0.9996601623176 -79.28942368357 0.0259415856896 21.974741172721
8.632200000000001 0.0259397427448 -0.546269101447 0.9996601852532 -79.29133077121 0.9996601852532 -79.29133077121 0.0259406919214 21.973682613767
8.632400000000001 0.0259388468279 -0.549024677497 0.9996602082391 -79.29323797524 0.9996602082391 -79.29323797524 0.0259397961532 21.972624937954
8.632600000000000 0.0259379489037 -0.551781368805 0.9996602312754 -79.29514529608 0.9996602312754 -79.29514529608 0.0259388983783 21.971568148462
8.632800000000001 0.0259370489612 -0.554539181381 0.9996602543624 -79.29705273436 0.9996602543624 -79.29705273436 0.0259379985856 21.970512249828
8.633000000000001 0.0259361469940 -0.557298118763 0.9996602775003 -79.29896029047 0.9996602775003 -79.29896029047 0.0259370967685 21.969457245045
8.633200000000000 0.0259352429930 -0.560058186201 0.9996603006894 -79.30086796494 0.9996603006894 -79.30086796494 0.0259361929180 21.968403137749
8.633400000000000 0.0259343369476 -0.562819388996 0.9996603239299 -79.30277575839 0.9996603239299 -79.30277575839 0.0259352870236 21.967349932698
8.633600000000001 0.0259334288512 -0.565581731068 0.9996603472219 -79.30468367120 0.9996603472219 -79.30468367120 0.0259343790787 21.966297632674
8.633800000000001 0.0259325186940 -0.568345217499 0.9996603705656 -79.30659170396 0.9996603705656 -79.30659170396 0.0259334690734 21.965246242109
8.634000000000000 0.0259316064678 -0.571109853166 0.9996603939614 -79.30849985714 0.9996603939614 -79.30849985714 0.0259325569996 21.964195764183
8.634200000000000 0.0259306921605 -0.573875644224 0.9996604174094 -79.31040813146 0.9996604174094 -79.31040813146 0.0259316428450 21.963146204369
8.634400000000001 0.0259297757679 -0.576642593440 0.9996604409099 -79.31231652714 0.9996604409099 -79.31231652714 0.0259307266057 21.962097564236
8.634600000000001 0.0259288572786 -0.579410706619 0.9996604644630 -79.31422504488 0.9996604644631 -79.31422504488 0.0259298082700 21.961049849127
8.634800000000000 0.0259279366827 -0.582179989353 0.9996604880691 -79.31613368524 0.9996604880691 -79.31613368524 0.0259288878283 21.960003062907
8.635000000000000 0.0259270139741 -0.584950445094 0.9996605117283 -79.31804244859 0.9996605117283 -79.31804244859 0.0259279652743 21.958957208429
8.635200000000001 0.0259260891399 -0.587722080844 0.9996605354409 -79.31995133568 0.9996605354409 -79.31995133568 0.0259270405952 21.957912291037
8.635400000000001 0.0259251621734 -0.590494899991 0.9996605592070 -79.32186034690 0.9996605592070 -79.32186034690 0.0259261137843 21.956868314017
8.635600000000000 0.0259242330650 -0.593268908426 0.9996605830270 -79.32376948282 0.9996605830270 -79.32376948282 0.0259251848318 21.955825280999
8.635800000000000 0.0259233018053 -0.596044110529 0.9996606069009 -79.32567874398 0.9996606069010 -79.32567874398 0.0259242537286 21.954783196593
8.636000000000001 0.0259223683847 -0.598820511983 0.9996606308292 -79.32758813096 0.9996606308292 -79.32758813096 0.0259233204649 21.953742064620
8.636200000000001 0.0259214327950 -0.601598117294 0.9996606548120 -79.32949764423 0.9996606548120 -79.32949764423 0.0259223850326 21.952701888731
8.636400000000000 0.0259204950252 -0.604376932407 0.9996606788495 -79.33140728443 0.9996606788495 -79.33140728443 0.0259214474207 21.951662673620
8.636600000000001 0.0259195550673 -0.607156961792 0.9996607029420 -79.33331705204 0.9996607029420 -79.33331705204 0.0259205076211 21.950624422805
8.636800000000001 0.0259186129117 -0.609938210508 0.9996607270896 -79.33522694762 0.9996607270896 -79.33522694762 0.0259195656243 21.949587140495
8.637000000000000 0.0259176685479 -0.612720684424 0.9996607512927 -79.33713697178 0.9996607512927 -79.33713697178 0.0259186214198 21.948550831198
8.637200000000000 0.0259167219674 -0.615504388450 0.9996607755516 -79.33904712504 0.9996607755516 -79.33904712504 0.0259176749990 21.947515498468
8.637400000000001 0.0259157731601 -0.618289327730 0.9996607998663 -79.34095740796 0.9996607998663 -79.34095740796 0.0259167263520 21.946481146843
8.637600000000001 0.0259148221173 -0.621075507265 0.9996608242372 -79.34286782106 0.9996608242372 -79.34286782106 0.0259157754699 21.945447780075
8.637800000000000 0.0259138688281 -0.623862932957 0.9996608486645 -79.34477836499 0.9996608486645 -79.34477836499 0.0259148223419 21.944415402846
8.638000000000000 0.0259129132839 -0.626651609433 0.9996608731483 -79.34668904026 0.9996608731483 -79.34668904026 0.0259138669594 21.943384019119
8.638200000000001 0.0259119554748 -0.629441542382 0.9996608976890 -79.34859984742 0.9996608976890 -79.34859984742 0.0259129093126 21.942353632787
8.638400000000001 0.0259109953906 -0.632232737295 0.9996609222869 -79.35051078710 0.9996609222869 -79.35051078710 0.0259119493910 21.941324248557
8.638600000000000 0.0259100330210 -0.635025199770 0.9996609469422 -79.35242185989 0.9996609469422 -79.35242185989 0.0259109871846 21.940295870719
8.638800000000000 0.0259090683583 -0.637818934157 0.9996609716550 -79.35433306624 0.9996609716550 -79.35433306624 0.0259100226856 21.939268502878
8.639000000000001 0.0259081013900 -0.640613947092 0.9996609964256 -79.35624440689 0.9996609964256 -79.35624440689 0.0259090558814 21.938242150342
8.639200000000001 0.0259071321086 -0.643410243088 0.9996610212544 -79.35815588227 0.9996610212544 -79.35815588227 0.0259080867647 21.937216816325
8.639400000000000 0.0259061605020 -0.646207828437 0.9996610461415 -79.36006749310 0.9996610461415 -79.36006749310 0.0259071153232 21.936192506106
8.639600000000000 0.0259051865609 -0.649006708543 0.9996610710872 -79.36197923992 0.9996610710872 -79.36197923992 0.0259061415478 21.935169223621
8.639800000000001 0.0259042102758 -0.651806888368 0.9996610960918 -79.36389112329 0.9996610960918 -79.36389112329 0.0259051654289 21.934146973236
8.640000000000001 0.0259032316364 -0.654608373723 0.9996611211554 -79.36580314380 0.9996611211554 -79.36580314380 0.0259041869562 21.933125759333
8.640200000000000 0.0259022506318 -0.657411170501 0.9996611462783 -79.36771530212 0.9996611462783 -79.36771530212 0.0259032061188 21.932105586773