! Sonnet Data File
! From: emgraph Version : 16.52
! From Project: 171117_Xmon_fullysym
! Data is De-embedded 
! Data File Written: 11/27/2017 00:27:56
!< HDATE 11/26/2017 21:47:59
!< MDATE 11/26/2017 21:47:59
!< PARAMS
!< Lj = 11.0
!< Gap = 1.0
!< Pwid = 2000.0
!< Airgap = 6.0
!< Width = 10.0
!< Lj1 = 10.7
!< END PARAMS
# GHZ S MA R 50.90000
8.76000000 0.022992 -3.634 0.999731 -80.65 0.999731 -80.65 0.022993 22.352
!< P1 F=8.76 Eeff=(6.44841381 -2.9796e-5) Z0=(50.9085048 1.17026e-4) R=0.0 C=0.0 
!< P2 F=8.76 Eeff=(6.44841381 -2.9796e-5) Z0=(50.9085048 1.17026e-4) R=0.0 C=0.0 
8.76005000 0.022989 -3.636 0.999731 -80.65 0.999731 -80.65 0.022991 22.353
8.76010000 0.022987 -3.638 0.999731 -80.65 0.999731 -80.65 0.022988 22.354
8.76015000 0.022984 -3.641 0.999732 -80.65 0.999732 -80.65 0.022986 22.355
8.76020000 0.022982 -3.643 0.999732 -80.65 0.999732 -80.65 0.022983 22.356
8.76025000 0.022979 -3.645 0.999732 -80.65 0.999732 -80.65 0.022981 22.357
8.76030000 0.022976 -3.647 0.999732 -80.65 0.999732 -80.65 0.022978 22.358
8.76035000 0.022974 -3.650 0.999732 -80.65 0.999732 -80.65 0.022975 22.359
8.76040000 0.022971 -3.652 0.999732 -80.65 0.999732 -80.65 0.022973 22.360
8.76045000 0.022969 -3.654 0.999732 -80.65 0.999732 -80.65 0.022970 22.361
8.76050000 0.022966 -3.657 0.999732 -80.66 0.999732 -80.66 0.022968 22.362
8.76055000 0.022963 -3.659 0.999732 -80.66 0.999732 -80.66 0.022965 22.363
8.76060000 0.022961 -3.661 0.999732 -80.66 0.999732 -80.66 0.022962 22.364
8.76065000 0.022958 -3.663 0.999732 -80.66 0.999732 -80.66 0.022960 22.365
8.76070000 0.022956 -3.666 0.999732 -80.66 0.999732 -80.66 0.022957 22.366
8.76075000 0.022953 -3.668 0.999732 -80.66 0.999732 -80.66 0.022955 22.367
8.76080000 0.022950 -3.670 0.999732 -80.66 0.999732 -80.66 0.022952 22.368
8.76085000 0.022948 -3.673 0.999732 -80.66 0.999732 -80.66 0.022949 22.369
8.76090000 0.022945 -3.675 0.999732 -80.66 0.999732 -80.66 0.022947 22.371
8.76095000 0.022942 -3.677 0.999732 -80.66 0.999732 -80.66 0.022944 22.372
8.76100000 0.022940 -3.680 0.999733 -80.66 0.999733 -80.66 0.022941 22.373
8.76105000 0.022937 -3.682 0.999733 -80.66 0.999733 -80.66 0.022939 22.374
8.76110000 0.022935 -3.684 0.999733 -80.66 0.999733 -80.66 0.022936 22.375
8.76115000 0.022932 -3.687 0.999733 -80.66 0.999733 -80.66 0.022933 22.376
8.76120000 0.022929 -3.689 0.999733 -80.66 0.999733 -80.66 0.022931 22.377
8.76125000 0.022927 -3.691 0.999733 -80.66 0.999733 -80.66 0.022928 22.378
8.76130000 0.022924 -3.694 0.999733 -80.67 0.999733 -80.67 0.022925 22.379
8.76135000 0.022921 -3.696 0.999733 -80.67 0.999733 -80.67 0.022923 22.380
8.76140000 0.022919 -3.698 0.999733 -80.67 0.999733 -80.67 0.022920 22.382
8.76145000 0.022916 -3.701 0.999733 -80.67 0.999733 -80.67 0.022917 22.383
8.76150000 0.022913 -3.703 0.999733 -80.67 0.999733 -80.67 0.022915 22.384
8.76155000 0.022910 -3.705 0.999733 -80.67 0.999733 -80.67 0.022912 22.385
8.76160000 0.022908 -3.708 0.999733 -80.67 0.999733 -80.67 0.022909 22.386
8.76165000 0.022905 -3.710 0.999733 -80.67 0.999733 -80.67 0.022907 22.387
8.76170000 0.022902 -3.712 0.999733 -80.67 0.999733 -80.67 0.022904 22.388
8.76175000 0.022900 -3.715 0.999733 -80.67 0.999733 -80.67 0.022901 22.389
8.76180000 0.022897 -3.717 0.999733 -80.67 0.999733 -80.67 0.022898 22.391
8.76185000 0.022894 -3.720 0.999734 -80.67 0.999734 -80.67 0.022896 22.392
8.76190000 0.022891 -3.722 0.999734 -80.67 0.999734 -80.67 0.022893 22.393
8.76195000 0.022889 -3.724 0.999734 -80.67 0.999734 -80.67 0.022890 22.394
8.76200000 0.022886 -3.727 0.999734 -80.67 0.999734 -80.67 0.022888 22.395
8.76205000 0.022883 -3.729 0.999734 -80.67 0.999734 -80.67 0.022885 22.396
8.76210000 0.022881 -3.732 0.999734 -80.68 0.999734 -80.68 0.022882 22.398
8.76215000 0.022878 -3.734 0.999734 -80.68 0.999734 -80.68 0.022879 22.399
8.76220000 0.022875 -3.736 0.999734 -80.68 0.999734 -80.68 0.022877 22.400
8.76225000 0.022872 -3.739 0.999734 -80.68 0.999734 -80.68 0.022874 22.401
8.76230000 0.022869 -3.741 0.999734 -80.68 0.999734 -80.68 0.022871 22.402
8.76235000 0.022867 -3.744 0.999734 -80.68 0.999734 -80.68 0.022868 22.403
8.76240000 0.022864 -3.746 0.999734 -80.68 0.999734 -80.68 0.022865 22.405
8.76245000 0.022861 -3.748 0.999734 -80.68 0.999734 -80.68 0.022863 22.406
8.76250000 0.022858 -3.751 0.999734 -80.68 0.999734 -80.68 0.022860 22.407
8.76255000 0.022856 -3.753 0.999734 -80.68 0.999734 -80.68 0.022857 22.408
8.76260000 0.022853 -3.756 0.999734 -80.68 0.999734 -80.68 0.022854 22.409
8.76265000 0.022850 -3.758 0.999735 -80.68 0.999735 -80.68 0.022852 22.410
8.76270000 0.022847 -3.761 0.999735 -80.68 0.999735 -80.68 0.022849 22.412
8.76275000 0.022844 -3.763 0.999735 -80.68 0.999735 -80.68 0.022846 22.413
8.76280000 0.022842 -3.766 0.999735 -80.68 0.999735 -80.68 0.022843 22.414
8.76285000 0.022839 -3.768 0.999735 -80.68 0.999735 -80.68 0.022840 22.415
8.76290000 0.022836 -3.770 0.999735 -80.69 0.999735 -80.69 0.022837 22.417
8.76295000 0.022833 -3.773 0.999735 -80.69 0.999735 -80.69 0.022835 22.418
8.76300000 0.022830 -3.775 0.999735 -80.69 0.999735 -80.69 0.022832 22.419
8.76305000 0.022827 -3.778 0.999735 -80.69 0.999735 -80.69 0.022829 22.420
8.76310000 0.022825 -3.780 0.999735 -80.69 0.999735 -80.69 0.022826 22.421
8.76315000 0.022822 -3.783 0.999735 -80.69 0.999735 -80.69 0.022823 22.423
8.76320000 0.022819 -3.785 0.999735 -80.69 0.999735 -80.69 0.022820 22.424
8.76325000 0.022816 -3.788 0.999735 -80.69 0.999735 -80.69 0.022818 22.425
8.76330000 0.022813 -3.790 0.999735 -80.69 0.999735 -80.69 0.022815 22.426
8.76335000 0.022810 -3.793 0.999735 -80.69 0.999735 -80.69 0.022812 22.428
8.76340000 0.022807 -3.795 0.999735 -80.69 0.999735 -80.69 0.022809 22.429
8.76345000 0.022805 -3.798 0.999736 -80.69 0.999736 -80.69 0.022806 22.430
8.76350000 0.022802 -3.800 0.999736 -80.69 0.999736 -80.69 0.022803 22.431
8.76355000 0.022799 -3.803 0.999736 -80.69 0.999736 -80.69 0.022800 22.433
8.76360000 0.022796 -3.805 0.999736 -80.69 0.999736 -80.69 0.022797 22.434
8.76365000 0.022793 -3.808 0.999736 -80.69 0.999736 -80.69 0.022795 22.435
8.76370000 0.022790 -3.811 0.999736 -80.70 0.999736 -80.70 0.022792 22.437
8.76375000 0.022787 -3.813 0.999736 -80.70 0.999736 -80.70 0.022789 22.438
8.76380000 0.022784 -3.816 0.999736 -80.70 0.999736 -80.70 0.022786 22.439
8.76385000 0.022781 -3.818 0.999736 -80.70 0.999736 -80.70 0.022783 22.440
8.76390000 0.022778 -3.821 0.999736 -80.70 0.999736 -80.70 0.022780 22.442
8.76395000 0.022775 -3.823 0.999736 -80.70 0.999736 -80.70 0.022777 22.443
8.76400000 0.022772 -3.826 0.999736 -80.70 0.999736 -80.70 0.022774 22.444
8.76405000 0.022770 -3.828 0.999736 -80.70 0.999736 -80.70 0.022771 22.446
8.76410000 0.022767 -3.831 0.999736 -80.70 0.999736 -80.70 0.022768 22.447
8.76415000 0.022764 -3.834 0.999736 -80.70 0.999736 -80.70 0.022765 22.448
8.76420000 0.022761 -3.836 0.999737 -80.70 0.999737 -80.70 0.022762 22.450
8.76425000 0.022758 -3.839 0.999737 -80.70 0.999737 -80.70 0.022759 22.451
8.76430000 0.022755 -3.841 0.999737 -80.70 0.999737 -80.70 0.022756 22.452
8.76435000 0.022752 -3.844 0.999737 -80.70 0.999737 -80.70 0.022753 22.454
8.76440000 0.022749 -3.847 0.999737 -80.70 0.999737 -80.70 0.022750 22.455
8.76445000 0.022746 -3.849 0.999737 -80.70 0.999737 -80.70 0.022747 22.456
8.76450000 0.022743 -3.852 0.999737 -80.71 0.999737 -80.71 0.022744 22.458
8.76455000 0.022740 -3.854 0.999737 -80.71 0.999737 -80.71 0.022741 22.459
8.76460000 0.022737 -3.857 0.999737 -80.71 0.999737 -80.71 0.022738 22.460
8.76465000 0.022734 -3.860 0.999737 -80.71 0.999737 -80.71 0.022735 22.462
8.76470000 0.022731 -3.862 0.999737 -80.71 0.999737 -80.71 0.022732 22.463
8.76475000 0.022728 -3.865 0.999737 -80.71 0.999737 -80.71 0.022729 22.464
8.76480000 0.022725 -3.868 0.999737 -80.71 0.999737 -80.71 0.022726 22.466
8.76485000 0.022722 -3.870 0.999737 -80.71 0.999737 -80.71 0.022723 22.467
8.76490000 0.022719 -3.873 0.999737 -80.71 0.999737 -80.71 0.022720 22.468
8.76495000 0.022716 -3.875 0.999738 -80.71 0.999738 -80.71 0.022717 22.470
8.76500000 0.022713 -3.878 0.999738 -80.71 0.999738 -80.71 0.022714 22.471
8.76505000 0.022709 -3.881 0.999738 -80.71 0.999738 -80.71 0.022711 22.473
8.76510000 0.022706 -3.883 0.999738 -80.71 0.999738 -80.71 0.022708 22.474
8.76515000 0.022703 -3.886 0.999738 -80.71 0.999738 -80.71 0.022705 22.475
8.76520000 0.022700 -3.889 0.999738 -80.71 0.999738 -80.71 0.022702 22.477
8.76525000 0.022697 -3.892 0.999738 -80.72 0.999738 -80.72 0.022699 22.478
8.76530000 0.022694 -3.894 0.999738 -80.72 0.999738 -80.72 0.022696 22.480
8.76535000 0.022691 -3.897 0.999738 -80.72 0.999738 -80.72 0.022693 22.481
8.76540000 0.022688 -3.900 0.999738 -80.72 0.999738 -80.72 0.022689 22.482
8.76545000 0.022685 -3.902 0.999738 -80.72 0.999738 -80.72 0.022686 22.484
8.76550000 0.022682 -3.905 0.999738 -80.72 0.999738 -80.72 0.022683 22.485
8.76555000 0.022679 -3.908 0.999738 -80.72 0.999738 -80.72 0.022680 22.487
8.76560000 0.022675 -3.911 0.999738 -80.72 0.999738 -80.72 0.022677 22.488
8.76565000 0.022672 -3.913 0.999738 -80.72 0.999738 -80.72 0.022674 22.490
8.76570000 0.022669 -3.916 0.999739 -80.72 0.999739 -80.72 0.022671 22.491
8.76575000 0.022666 -3.919 0.999739 -80.72 0.999739 -80.72 0.022668 22.493
8.76580000 0.022663 -3.921 0.999739 -80.72 0.999739 -80.72 0.022664 22.494
8.76585000 0.022660 -3.924 0.999739 -80.72 0.999739 -80.72 0.022661 22.496
8.76590000 0.022656 -3.927 0.999739 -80.72 0.999739 -80.72 0.022658 22.497
8.76595000 0.022653 -3.930 0.999739 -80.72 0.999739 -80.72 0.022655 22.498
8.76600000 0.022650 -3.933 0.999739 -80.72 0.999739 -80.72 0.022652 22.500
8.76605000 0.022647 -3.935 0.999739 -80.73 0.999739 -80.73 0.022649 22.501
8.76610000 0.022644 -3.938 0.999739 -80.73 0.999739 -80.73 0.022645 22.503
8.76615000 0.022641 -3.941 0.999739 -80.73 0.999739 -80.73 0.022642 22.504
8.76620000 0.022637 -3.944 0.999739 -80.73 0.999739 -80.73 0.022639 22.506
8.76625000 0.022634 -3.946 0.999739 -80.73 0.999739 -80.73 0.022636 22.507
8.76630000 0.022631 -3.949 0.999739 -80.73 0.999739 -80.73 0.022633 22.509
8.76635000 0.022628 -3.952 0.999739 -80.73 0.999739 -80.73 0.022629 22.510
8.76640000 0.022624 -3.955 0.999739 -80.73 0.999739 -80.73 0.022626 22.512
8.76645000 0.022621 -3.958 0.999740 -80.73 0.999740 -80.73 0.022623 22.514
8.76650000 0.022618 -3.961 0.999740 -80.73 0.999740 -80.73 0.022620 22.515
8.76655000 0.022615 -3.963 0.999740 -80.73 0.999740 -80.73 0.022616 22.517
8.76660000 0.022611 -3.966 0.999740 -80.73 0.999740 -80.73 0.022613 22.518
8.76665000 0.022608 -3.969 0.999740 -80.73 0.999740 -80.73 0.022610 22.520
8.76670000 0.022605 -3.972 0.999740 -80.73 0.999740 -80.73 0.022607 22.521
8.76675000 0.022602 -3.975 0.999740 -80.73 0.999740 -80.73 0.022603 22.523
8.76680000 0.022598 -3.978 0.999740 -80.74 0.999740 -80.74 0.022600 22.524
8.76685000 0.022595 -3.981 0.999740 -80.74 0.999740 -80.74 0.022597 22.526
8.76690000 0.022592 -3.983 0.999740 -80.74 0.999740 -80.74 0.022593 22.528
8.76695000 0.022588 -3.986 0.999740 -80.74 0.999740 -80.74 0.022590 22.529
8.76700000 0.022585 -3.989 0.999740 -80.74 0.999740 -80.74 0.022587 22.531
8.76705000 0.022582 -3.992 0.999740 -80.74 0.999740 -80.74 0.022584 22.532
8.76710000 0.022579 -3.995 0.999740 -80.74 0.999740 -80.74 0.022580 22.534
8.76715000 0.022575 -3.998 0.999741 -80.74 0.999741 -80.74 0.022577 22.536
8.76720000 0.022572 -4.001 0.999741 -80.74 0.999741 -80.74 0.022574 22.537
8.76725000 0.022568 -4.004 0.999741 -80.74 0.999741 -80.74 0.022570 22.539
8.76730000 0.022565 -4.007 0.999741 -80.74 0.999741 -80.74 0.022567 22.540
8.76735000 0.022562 -4.010 0.999741 -80.74 0.999741 -80.74 0.022563 22.542
8.76740000 0.022558 -4.013 0.999741 -80.74 0.999741 -80.74 0.022560 22.544
8.76745000 0.022555 -4.016 0.999741 -80.74 0.999741 -80.74 0.022557 22.545
8.76750000 0.022552 -4.019 0.999741 -80.74 0.999741 -80.74 0.022553 22.547
8.76755000 0.022548 -4.022 0.999741 -80.75 0.999741 -80.75 0.022550 22.549
8.76760000 0.022545 -4.025 0.999741 -80.75 0.999741 -80.75 0.022547 22.550
8.76765000 0.022541 -4.028 0.999741 -80.75 0.999741 -80.75 0.022543 22.552
8.76770000 0.022538 -4.031 0.999741 -80.75 0.999741 -80.75 0.022540 22.554
8.76775000 0.022535 -4.034 0.999741 -80.75 0.999741 -80.75 0.022536 22.555
8.76780000 0.022531 -4.037 0.999742 -80.75 0.999742 -80.75 0.022533 22.557
8.76785000 0.022528 -4.040 0.999742 -80.75 0.999742 -80.75 0.022529 22.559
8.76790000 0.022524 -4.043 0.999742 -80.75 0.999742 -80.75 0.022526 22.561
8.76795000 0.022521 -4.046 0.999742 -80.75 0.999742 -80.75 0.022523 22.562
8.76800000 0.022517 -4.049 0.999742 -80.75 0.999742 -80.75 0.022519 22.564
8.76805000 0.022514 -4.052 0.999742 -80.75 0.999742 -80.75 0.022516 22.566
8.76810000 0.022510 -4.055 0.999742 -80.75 0.999742 -80.75 0.022512 22.567
8.76815000 0.022507 -4.058 0.999742 -80.75 0.999742 -80.75 0.022509 22.569
8.76820000 0.022503 -4.061 0.999742 -80.75 0.999742 -80.75 0.022505 22.571
8.76825000 0.022500 -4.064 0.999742 -80.75 0.999742 -80.75 0.022502 22.573
8.76830000 0.022496 -4.067 0.999742 -80.76 0.999742 -80.76 0.022498 22.574
8.76835000 0.022493 -4.070 0.999742 -80.76 0.999742 -80.76 0.022495 22.576
8.76840000 0.022489 -4.073 0.999742 -80.76 0.999742 -80.76 0.022491 22.578
8.76845000 0.022486 -4.076 0.999743 -80.76 0.999743 -80.76 0.022487 22.580
8.76850000 0.022482 -4.080 0.999743 -80.76 0.999743 -80.76 0.022484 22.581
8.76855000 0.022479 -4.083 0.999743 -80.76 0.999743 -80.76 0.022480 22.583
8.76860000 0.022475 -4.086 0.999743 -80.76 0.999743 -80.76 0.022477 22.585
8.76865000 0.022471 -4.089 0.999743 -80.76 0.999743 -80.76 0.022473 22.587
8.76870000 0.022468 -4.092 0.999743 -80.76 0.999743 -80.76 0.022470 22.589
8.76875000 0.022464 -4.095 0.999743 -80.76 0.999743 -80.76 0.022466 22.591
8.76880000 0.022461 -4.098 0.999743 -80.76 0.999743 -80.76 0.022462 22.592
8.76885000 0.022457 -4.102 0.999743 -80.76 0.999743 -80.76 0.022459 22.594
8.76890000 0.022453 -4.105 0.999743 -80.76 0.999743 -80.76 0.022455 22.596
8.76895000 0.022450 -4.108 0.999743 -80.76 0.999743 -80.76 0.022452 22.598
8.76900000 0.022446 -4.111 0.999743 -80.76 0.999743 -80.76 0.022448 22.600
8.76905000 0.022443 -4.114 0.999743 -80.77 0.999743 -80.77 0.022444 22.602
8.76910000 0.022439 -4.118 0.999744 -80.77 0.999744 -80.77 0.022441 22.604
8.76915000 0.022435 -4.121 0.999744 -80.77 0.999744 -80.77 0.022437 22.605
8.76920000 0.022432 -4.124 0.999744 -80.77 0.999744 -80.77 0.022433 22.607
8.76925000 0.022428 -4.127 0.999744 -80.77 0.999744 -80.77 0.022430 22.609
8.76930000 0.022424 -4.131 0.999744 -80.77 0.999744 -80.77 0.022426 22.611
8.76935000 0.022420 -4.134 0.999744 -80.77 0.999744 -80.77 0.022422 22.613
8.76940000 0.022417 -4.137 0.999744 -80.77 0.999744 -80.77 0.022419 22.615
8.76945000 0.022413 -4.140 0.999744 -80.77 0.999744 -80.77 0.022415 22.617
8.76950000 0.022409 -4.144 0.999744 -80.77 0.999744 -80.77 0.022411 22.619
8.76955000 0.022406 -4.147 0.999744 -80.77 0.999744 -80.77 0.022407 22.621
8.76960000 0.022402 -4.150 0.999744 -80.77 0.999744 -80.77 0.022404 22.623
8.76965000 0.022398 -4.154 0.999744 -80.77 0.999744 -80.77 0.022400 22.625
8.76970000 0.022394 -4.157 0.999744 -80.77 0.999744 -80.77 0.022396 22.627
8.76975000 0.022391 -4.160 0.999745 -80.77 0.999745 -80.77 0.022392 22.629
8.76980000 0.022387 -4.164 0.999745 -80.78 0.999745 -80.78 0.022389 22.631
8.76985000 0.022383 -4.167 0.999745 -80.78 0.999745 -80.78 0.022385 22.633
8.76990000 0.022379 -4.170 0.999745 -80.78 0.999745 -80.78 0.022381 22.635
8.76995000 0.022375 -4.174 0.999745 -80.78 0.999745 -80.78 0.022377 22.637
8.77000000 0.022371 -4.177 0.999745 -80.78 0.999745 -80.78 0.022373 22.639
8.77005000 0.022368 -4.181 0.999745 -80.78 0.999745 -80.78 0.022369 22.641
8.77010000 0.022364 -4.184 0.999745 -80.78 0.999745 -80.78 0.022366 22.643
8.77015000 0.022360 -4.187 0.999745 -80.78 0.999745 -80.78 0.022362 22.645
8.77020000 0.022356 -4.191 0.999745 -80.78 0.999745 -80.78 0.022358 22.647
8.77025000 0.022352 -4.194 0.999745 -80.78 0.999745 -80.78 0.022354 22.649
8.77030000 0.022348 -4.198 0.999745 -80.78 0.999745 -80.78 0.022350 22.651
8.77035000 0.022344 -4.201 0.999746 -80.78 0.999746 -80.78 0.022346 22.653
8.77040000 0.022340 -4.205 0.999746 -80.78 0.999746 -80.78 0.022342 22.656
8.77045000 0.022336 -4.208 0.999746 -80.78 0.999746 -80.78 0.022338 22.658
8.77050000 0.022333 -4.212 0.999746 -80.79 0.999746 -80.79 0.022334 22.660
8.77055000 0.022329 -4.215 0.999746 -80.79 0.999746 -80.79 0.022330 22.662
8.77060000 0.022325 -4.219 0.999746 -80.79 0.999746 -80.79 0.022326 22.664
8.77065000 0.022321 -4.222 0.999746 -80.79 0.999746 -80.79 0.022322 22.666
8.77070000 0.022317 -4.226 0.999746 -80.79 0.999746 -80.79 0.022318 22.668
8.77075000 0.022313 -4.229 0.999746 -80.79 0.999746 -80.79 0.022314 22.671
8.77080000 0.022309 -4.233 0.999746 -80.79 0.999746 -80.79 0.022310 22.673
8.77085000 0.022305 -4.237 0.999746 -80.79 0.999746 -80.79 0.022306 22.675
8.77090000 0.022301 -4.240 0.999746 -80.79 0.999746 -80.79 0.022302 22.677
8.77095000 0.022296 -4.244 0.999747 -80.79 0.999747 -80.79 0.022298 22.680
8.77100000 0.022292 -4.248 0.999747 -80.79 0.999747 -80.79 0.022294 22.682
8.77105000 0.022288 -4.251 0.999747 -80.79 0.999747 -80.79 0.022290 22.684
8.77110000 0.022284 -4.255 0.999747 -80.79 0.999747 -80.79 0.022286 22.686
8.77115000 0.022280 -4.258 0.999747 -80.79 0.999747 -80.79 0.022282 22.689
8.77120000 0.022276 -4.262 0.999747 -80.80 0.999747 -80.80 0.022278 22.691
8.77125000 0.022272 -4.266 0.999747 -80.80 0.999747 -80.80 0.022274 22.693
8.77130000 0.022268 -4.270 0.999747 -80.80 0.999747 -80.80 0.022270 22.695
8.77135000 0.022264 -4.273 0.999747 -80.80 0.999747 -80.80 0.022266 22.698
8.77140000 0.022259 -4.277 0.999747 -80.80 0.999747 -80.80 0.022261 22.700
8.77145000 0.022255 -4.281 0.999747 -80.80 0.999747 -80.80 0.022257 22.703
8.77150000 0.022251 -4.285 0.999747 -80.80 0.999747 -80.80 0.022253 22.705
8.77155000 0.022247 -4.288 0.999748 -80.80 0.999748 -80.80 0.022249 22.707
8.77160000 0.022243 -4.292 0.999748 -80.80 0.999748 -80.80 0.022245 22.710
8.77165000 0.022238 -4.296 0.999748 -80.80 0.999748 -80.80 0.022240 22.712
8.77170000 0.022234 -4.300 0.999748 -80.80 0.999748 -80.80 0.022236 22.715
8.77175000 0.022230 -4.304 0.999748 -80.80 0.999748 -80.80 0.022232 22.717
8.77180000 0.022226 -4.308 0.999748 -80.80 0.999748 -80.80 0.022228 22.719
8.77185000 0.022221 -4.311 0.999748 -80.80 0.999748 -80.80 0.022223 22.722
8.77190000 0.022217 -4.315 0.999748 -80.81 0.999748 -80.81 0.022219 22.724
8.77195000 0.022213 -4.319 0.999748 -80.81 0.999748 -80.81 0.022215 22.727
8.77200000 0.022208 -4.323 0.999748 -80.81 0.999748 -80.81 0.022210 22.729
8.77205000 0.022204 -4.327 0.999748 -80.81 0.999748 -80.81 0.022206 22.732
8.77210000 0.022200 -4.331 0.999749 -80.81 0.999749 -80.81 0.022202 22.734
8.77215000 0.022195 -4.335 0.999749 -80.81 0.999749 -80.81 0.022197 22.737
8.77220000 0.022191 -4.339 0.999749 -80.81 0.999749 -80.81 0.022193 22.740
8.77225000 0.022186 -4.343 0.999749 -80.81 0.999749 -80.81 0.022188 22.742
8.77230000 0.022182 -4.347 0.999749 -80.81 0.999749 -80.81 0.022184 22.745
8.77235000 0.022177 -4.351 0.999749 -80.81 0.999749 -80.81 0.022179 22.747
8.77240000 0.022173 -4.355 0.999749 -80.81 0.999749 -80.81 0.022175 22.750
8.77245000 0.022168 -4.359 0.999749 -80.81 0.999749 -80.81 0.022171 22.753
8.77250000 0.022164 -4.363 0.999749 -80.81 0.999749 -80.81 0.022166 22.755
8.77255000 0.022159 -4.367 0.999749 -80.81 0.999749 -80.81 0.022161 22.758
8.77260000 0.022155 -4.372 0.999749 -80.82 0.999749 -80.82 0.022157 22.761
8.77265000 0.022150 -4.376 0.999750 -80.82 0.999750 -80.82 0.022152 22.764
8.77270000 0.022146 -4.380 0.999750 -80.82 0.999750 -80.82 0.022148 22.766
8.77275000 0.022141 -4.384 0.999750 -80.82 0.999750 -80.82 0.022143 22.769
8.77280000 0.022137 -4.388 0.999750 -80.82 0.999750 -80.82 0.022139 22.772
8.77285000 0.022132 -4.393 0.999750 -80.82 0.999750 -80.82 0.022134 22.775
8.77290000 0.022127 -4.397 0.999750 -80.82 0.999750 -80.82 0.022129 22.777
8.77295000 0.022123 -4.401 0.999750 -80.82 0.999750 -80.82 0.022125 22.780
8.77300000 0.022118 -4.405 0.999750 -80.82 0.999750 -80.82 0.022120 22.783
8.77305000 0.022113 -4.410 0.999750 -80.82 0.999750 -80.82 0.022115 22.786
8.77310000 0.022108 -4.414 0.999750 -80.82 0.999750 -80.82 0.022111 22.789
8.77315000 0.022104 -4.419 0.999751 -80.82 0.999751 -80.82 0.022106 22.792
8.77320000 0.022099 -4.423 0.999751 -80.82 0.999751 -80.82 0.022101 22.795
8.77325000 0.022094 -4.427 0.999751 -80.83 0.999751 -80.83 0.022096 22.798
8.77330000 0.022089 -4.432 0.999751 -80.83 0.999751 -80.83 0.022091 22.801
8.77335000 0.022084 -4.436 0.999751 -80.83 0.999751 -80.83 0.022087 22.804
8.77340000 0.022080 -4.441 0.999751 -80.83 0.999751 -80.83 0.022082 22.807
8.77345000 0.022075 -4.445 0.999751 -80.83 0.999751 -80.83 0.022077 22.810
8.77350000 0.022070 -4.450 0.999751 -80.83 0.999751 -80.83 0.022072 22.813
8.77355000 0.022065 -4.454 0.999751 -80.83 0.999751 -80.83 0.022067 22.816
8.77360000 0.022060 -4.459 0.999751 -80.83 0.999751 -80.83 0.022062 22.819
8.77365000 0.022055 -4.464 0.999752 -80.83 0.999752 -80.83 0.022057 22.822
8.77370000 0.022050 -4.468 0.999752 -80.83 0.999752 -80.83 0.022052 22.825
8.77375000 0.022045 -4.473 0.999752 -80.83 0.999752 -80.83 0.022047 22.829
8.77380000 0.022040 -4.478 0.999752 -80.83 0.999752 -80.83 0.022042 22.832
8.77385000 0.022035 -4.482 0.999752 -80.83 0.999752 -80.83 0.022037 22.835
8.77390000 0.022030 -4.487 0.999752 -80.83 0.999752 -80.83 0.022032 22.838
8.77395000 0.022025 -4.492 0.999752 -80.84 0.999752 -80.84 0.022027 22.842
8.77400000 0.022019 -4.497 0.999752 -80.84 0.999752 -80.84 0.022022 22.845
8.77405000 0.022014 -4.502 0.999752 -80.84 0.999752 -80.84 0.022017 22.848
8.77410000 0.022009 -4.506 0.999752 -80.84 0.999752 -80.84 0.022011 22.852
8.77415000 0.022004 -4.511 0.999753 -80.84 0.999753 -80.84 0.022006 22.855
8.77420000 0.021999 -4.516 0.999753 -80.84 0.999753 -80.84 0.022001 22.859
8.77425000 0.021993 -4.521 0.999753 -80.84 0.999753 -80.84 0.021996 22.862
8.77430000 0.021988 -4.526 0.999753 -80.84 0.999753 -80.84 0.021990 22.866
8.77435000 0.021983 -4.531 0.999753 -80.84 0.999753 -80.84 0.021985 22.869
8.77440000 0.021977 -4.536 0.999753 -80.84 0.999753 -80.84 0.021980 22.873
8.77445000 0.021972 -4.542 0.999753 -80.84 0.999753 -80.84 0.021974 22.876
8.77450000 0.021966 -4.547 0.999753 -80.84 0.999753 -80.84 0.021969 22.880
8.77455000 0.021961 -4.552 0.999753 -80.85 0.999753 -80.85 0.021963 22.884
8.77460000 0.021955 -4.557 0.999753 -80.85 0.999753 -80.85 0.021958 22.888
8.77465000 0.021950 -4.562 0.999754 -80.85 0.999754 -80.85 0.021952 22.891
8.77470000 0.021944 -4.568 0.999754 -80.85 0.999754 -80.85 0.021947 22.895
8.77475000 0.021939 -4.573 0.999754 -80.85 0.999754 -80.85 0.021941 22.899
8.77480000 0.021933 -4.579 0.999754 -80.85 0.999754 -80.85 0.021935 22.903
8.77485000 0.021927 -4.584 0.999754 -80.85 0.999754 -80.85 0.021930 22.907
8.77490000 0.021922 -4.589 0.999754 -80.85 0.999754 -80.85 0.021924 22.911
8.77495000 0.021916 -4.595 0.999754 -80.85 0.999754 -80.85 0.021918 22.915
8.77500000 0.021910 -4.601 0.999754 -80.85 0.999754 -80.85 0.021913 22.919
8.77505000 0.021904 -4.606 0.999754 -80.85 0.999754 -80.85 0.021907 22.923
8.77510000 0.021898 -4.612 0.999755 -80.85 0.999755 -80.85 0.021901 22.927
8.77515000 0.021893 -4.618 0.999755 -80.85 0.999755 -80.85 0.021895 22.931
8.77520000 0.021887 -4.623 0.999755 -80.86 0.999755 -80.86 0.021889 22.935
8.77525000 0.021881 -4.629 0.999755 -80.86 0.999755 -80.86 0.021883 22.939
8.77530000 0.021875 -4.635 0.999755 -80.86 0.999755 -80.86 0.021877 22.944
8.77535000 0.021868 -4.641 0.999755 -80.86 0.999755 -80.86 0.021871 22.948
8.77540000 0.021862 -4.647 0.999755 -80.86 0.999755 -80.86 0.021865 22.952
8.77545000 0.021856 -4.653 0.999755 -80.86 0.999755 -80.86 0.021859 22.957
8.77550000 0.021850 -4.659 0.999755 -80.86 0.999755 -80.86 0.021853 22.961
8.77555000 0.021844 -4.665 0.999756 -80.86 0.999756 -80.86 0.021846 22.966
8.77560000 0.021837 -4.671 0.999756 -80.86 0.999756 -80.86 0.021840 22.971
8.77565000 0.021831 -4.678 0.999756 -80.86 0.999756 -80.86 0.021834 22.975
8.77570000 0.021825 -4.684 0.999756 -80.86 0.999756 -80.86 0.021827 22.980
8.77575000 0.021818 -4.690 0.999756 -80.86 0.999756 -80.86 0.021821 22.985
8.77580000 0.021812 -4.697 0.999756 -80.87 0.999756 -80.87 0.021814 22.990
8.77585000 0.021805 -4.703 0.999756 -80.87 0.999756 -80.87 0.021808 22.995
8.77590000 0.021798 -4.710 0.999756 -80.87 0.999756 -80.87 0.021801 23.000
8.77595000 0.021792 -4.717 0.999757 -80.87 0.999757 -80.87 0.021794 23.005
8.77600000 0.021785 -4.723 0.999757 -80.87 0.999757 -80.87 0.021788 23.010
8.77605000 0.021778 -4.730 0.999757 -80.87 0.999757 -80.87 0.021781 23.015
8.77610000 0.021771 -4.737 0.999757 -80.87 0.999757 -80.87 0.021774 23.020
8.77615000 0.021764 -4.744 0.999757 -80.87 0.999757 -80.87 0.021767 23.026
8.77620000 0.021757 -4.751 0.999757 -80.87 0.999757 -80.87 0.021760 23.031
8.77625000 0.021750 -4.758 0.999757 -80.87 0.999757 -80.87 0.021753 23.037
8.77630000 0.021743 -4.765 0.999757 -80.87 0.999757 -80.87 0.021746 23.042
8.77635000 0.021736 -4.773 0.999758 -80.88 0.999758 -80.88 0.021738 23.048
8.77640000 0.021728 -4.780 0.999758 -80.88 0.999758 -80.88 0.021731 23.054
8.77645000 0.021721 -4.788 0.999758 -80.88 0.999758 -80.88 0.021724 23.059
8.77650000 0.021713 -4.795 0.999758 -80.88 0.999758 -80.88 0.021716 23.065
8.77655000 0.021706 -4.803 0.999758 -80.88 0.999758 -80.88 0.021709 23.071
8.77660000 0.021698 -4.811 0.999758 -80.88 0.999758 -80.88 0.021701 23.078
8.77665000 0.021690 -4.819 0.999758 -80.88 0.999758 -80.88 0.021693 23.084
8.77670000 0.021683 -4.827 0.999758 -80.88 0.999758 -80.88 0.021686 23.090
8.77675000 0.021675 -4.835 0.999759 -80.88 0.999759 -80.88 0.021678 23.097
8.77680000 0.021667 -4.843 0.999759 -80.88 0.999759 -80.88 0.021670 23.103
8.77685000 0.021658 -4.852 0.999759 -80.88 0.999759 -80.88 0.021662 23.110
8.77690000 0.021650 -4.860 0.999759 -80.89 0.999759 -80.89 0.021653 23.117
8.77695000 0.021642 -4.869 0.999759 -80.89 0.999759 -80.89 0.021645 23.124
8.77700000 0.021633 -4.878 0.999759 -80.89 0.999759 -80.89 0.021637 23.131
8.77705000 0.021625 -4.887 0.999759 -80.89 0.999759 -80.89 0.021628 23.138
8.77710000 0.021616 -4.896 0.999760 -80.89 0.999760 -80.89 0.021620 23.145
8.77715000 0.021607 -4.905 0.999760 -80.89 0.999760 -80.89 0.021611 23.153
8.77720000 0.021598 -4.914 0.999760 -80.89 0.999760 -80.89 0.021602 23.161
8.77725000 0.021589 -4.924 0.999760 -80.89 0.999760 -80.89 0.021593 23.168
8.77730000 0.021580 -4.934 0.999760 -80.89 0.999760 -80.89 0.021584 23.176
8.77735000 0.021571 -4.944 0.999760 -80.89 0.999760 -80.89 0.021574 23.185
8.77740000 0.021561 -4.954 0.999760 -80.90 0.999760 -80.90 0.021565 23.193
8.77745000 0.021552 -4.964 0.999761 -80.90 0.999761 -80.90 0.021555 23.201
8.77750000 0.021542 -4.975 0.999761 -80.90 0.999761 -80.90 0.021546 23.210
8.77755000 0.021532 -4.985 0.999761 -80.90 0.999761 -80.90 0.021536 23.219
8.77760000 0.021522 -4.996 0.999761 -80.90 0.999761 -80.90 0.021526 23.228
8.77765000 0.021511 -5.007 0.999761 -80.90 0.999761 -80.90 0.021515 23.237
8.77770000 0.021501 -5.019 0.999761 -80.90 0.999761 -80.90 0.021505 23.247
8.77775000 0.021490 -5.030 0.999761 -80.90 0.999761 -80.90 0.021494 23.257
8.77780000 0.021479 -5.042 0.999762 -80.90 0.999762 -80.90 0.021483 23.267
8.77785000 0.021468 -5.055 0.999762 -80.91 0.999762 -80.91 0.021472 23.277
8.77790000 0.021457 -5.067 0.999762 -80.91 0.999762 -80.91 0.021461 23.288
8.77795000 0.021445 -5.080 0.999762 -80.91 0.999762 -80.91 0.021450 23.299
8.77800000 0.021433 -5.093 0.999762 -80.91 0.999762 -80.91 0.021438 23.310
8.77805000 0.021421 -5.106 0.999762 -80.91 0.999762 -80.91 0.021426 23.322
8.77810000 0.021409 -5.120 0.999762 -80.91 0.999762 -80.91 0.021413 23.334
8.77815000 0.021396 -5.134 0.999763 -80.91 0.999763 -80.91 0.021401 23.346
8.77820000 0.021383 -5.149 0.999763 -80.91 0.999763 -80.91 0.021388 23.358
8.77825000 0.021370 -5.164 0.999763 -80.92 0.999763 -80.92 0.021375 23.371
8.77830000 0.021356 -5.179 0.999763 -80.92 0.999763 -80.92 0.021361 23.385
8.77835000 0.021342 -5.195 0.999763 -80.92 0.999763 -80.92 0.021347 23.399
8.77840000 0.021328 -5.211 0.999763 -80.92 0.999763 -80.92 0.021333 23.413
8.77845000 0.021313 -5.228 0.999764 -80.92 0.999764 -80.92 0.021319 23.428
8.77850000 0.021298 -5.245 0.999764 -80.92 0.999764 -80.92 0.021304 23.443
8.77855000 0.021282 -5.263 0.999764 -80.92 0.999764 -80.92 0.021288 23.459
8.77860000 0.021266 -5.281 0.999764 -80.92 0.999764 -80.92 0.021272 23.476
8.77865000 0.021250 -5.300 0.999764 -80.93 0.999764 -80.93 0.021256 23.493
8.77870000 0.021233 -5.320 0.999764 -80.93 0.999764 -80.93 0.021239 23.510
8.77875000 0.021215 -5.340 0.999764 -80.93 0.999764 -80.93 0.021222 23.529
8.77880000 0.021197 -5.362 0.999765 -80.93 0.999765 -80.93 0.021204 23.548
8.77885000 0.021178 -5.384 0.999765 -80.93 0.999765 -80.93 0.021185 23.568
8.77890000 0.021159 -5.406 0.999765 -80.93 0.999765 -80.93 0.021166 23.589
8.77895000 0.021138 -5.430 0.999765 -80.94 0.999765 -80.94 0.021146 23.611
8.77900000 0.021117 -5.455 0.999765 -80.94 0.999765 -80.94 0.021125 23.634
8.77905000 0.021095 -5.481 0.999765 -80.94 0.999765 -80.94 0.021104 23.658
8.77910000 0.021073 -5.508 0.999765 -80.94 0.999765 -80.94 0.021081 23.683
8.77915000 0.021049 -5.536 0.999765 -80.94 0.999765 -80.94 0.021058 23.710
8.77920000 0.021024 -5.566 0.999765 -80.95 0.999765 -80.95 0.021033 23.738
8.77925000 0.020998 -5.597 0.999765 -80.95 0.999765 -80.95 0.021008 23.767
8.77930000 0.020971 -5.630 0.999765 -80.95 0.999765 -80.95 0.020981 23.798
8.77935000 0.020943 -5.664 0.999766 -80.95 0.999766 -80.95 0.020953 23.831
8.77940000 0.020913 -5.701 0.999766 -80.95 0.999766 -80.95 0.020924 23.866
8.77945000 0.020881 -5.739 0.999765 -80.96 0.999765 -80.96 0.020893 23.903
8.77950000 0.020848 -5.780 0.999765 -80.96 0.999765 -80.96 0.020860 23.942
8.77955000 0.020813 -5.823 0.999765 -80.96 0.999765 -80.96 0.020826 23.984
8.77960000 0.020776 -5.869 0.999765 -80.96 0.999765 -80.96 0.020789 24.029