! Sonnet Data File
! From: emgraph Version : 16.52
! From Project: 171117_Xmon_fullysym
! Data is De-embedded 
! Data File Written: 11/26/2017 17:14:24
!< HDATE 11/22/2017 16:48:52
!< MDATE 11/23/2017 10:16:42
!< PARAMS
!< Lj = 11.0
!< Gap = 1.0
!< Pwid = 2000.0
!< Airgap = 6.0
!< Width = 10.0
!< Lj1 = 9.4
!< END PARAMS
# GHZ S MA R 50.90000
8.750000000000000 0.0240663797366 -2.935595872486 0.9997062552075 -80.49346888670 0.9997062552092 -80.49346888654 0.0240677608425 21.962919309440
!< P1 F=8.75 Eeff=(6.44841643 -2.9796e-5) Z0=(50.9085185 1.17018e-4) R=0.0 C=0.0 
!< P2 F=8.75 Eeff=(6.44841643 -2.9796e-5) Z0=(50.9085185 1.17018e-4) R=0.0 C=0.0 
8.750100000000000 0.0240620577504 -2.939394236542 0.9997063557728 -80.49465031239 0.9997063557728 -80.49465031239 0.0240634406180 21.964372417518
8.750200000000001 0.0240577187840 -2.943203889363 0.9997064567094 -80.49583273948 0.9997064567094 -80.49583273948 0.0240591034218 21.965834897517
8.750300000000001 0.0240533627370 -2.947024893128 0.9997065580197 -80.49701617373 0.9997065580197 -80.49701617373 0.0240547491550 21.967306816926
8.750400000000001 0.0240489895038 -2.950857321899 0.9997066597053 -80.49820062137 0.9997066597053 -80.49820062137 0.0240503777126 21.968788241099
8.750500000000001 0.0240445989729 -2.954701254617 0.9997067617681 -80.49938608900 0.9997067617681 -80.49938608900 0.0240459889831 21.970279237700
8.750600000000000 0.0240401910632 -2.958556752997 0.9997068642101 -80.50057258141 0.9997068642101 -80.50057258141 0.0240415828856 21.971779858094
8.750700000000000 0.0240357656701 -2.962423892962 0.9997069670335 -80.50176010480 0.9997069670335 -80.50176010480 0.0240371593151 21.973290166060
8.750800000000000 0.0240313226847 -2.966302753678 0.9997070702410 -80.50294866562 0.9997070702410 -80.50294866562 0.0240327181630 21.974810226905
8.750900000000000 0.0240268620133 -2.970193402035 0.9997071738336 -80.50413826939 0.9997071738336 -80.50413826939 0.0240282593358 21.976340101497
8.751000000000001 0.0240223835391 -2.974095921810 0.9997072778138 -80.50532892302 0.9997072778138 -80.50532892302 0.0240237827169 21.977879859949
8.751100000000001 0.0240178871834 -2.978010374337 0.9997073821836 -80.50652063119 0.9997073821836 -80.50652063119 0.0240192882274 21.979429553032
8.751200000000001 0.0240133728213 -2.981936846606 0.9997074869448 -80.50771340126 0.9997074869448 -80.50771340126 0.0240147757429 21.980989256905
8.751300000000001 0.0240088403482 -2.985875418277 0.9997075921011 -80.50890723945 0.9997075921011 -80.50890723945 0.0240102451582 21.982559033556
8.751400000000000 0.0240042896775 -2.989826151899 0.9997076976527 -80.51010215085 0.9997076976527 -80.51010215085 0.0240056963873 21.984138941703
8.751500000000000 0.0239997206791 -2.993789140197 0.9997078036027 -80.51129814318 0.9997078036027 -80.51129814318 0.0240011293001 21.985729058843
8.751600000000000 0.0239951332534 -2.997764455769 0.9997079099524 -80.51249522231 0.9997079099524 -80.51249522231 0.0239965437974 21.987329448955
8.751700000000001 0.0239905272913 -3.001752182376 0.9997080167059 -80.51369339473 0.9997080167059 -80.51369339473 0.0239919397694 21.988940176067
8.751800000000001 0.0239859026925 -3.005752390642 0.9997081238634 -80.51489266634 0.9997081238634 -80.51489266634 0.0239873171166 21.990561307279
8.751900000000001 0.0239812593267 -3.009765174774 0.9997082314280 -80.51609304487 0.9997082314280 -80.51609304487 0.0239826757085 21.992192920232
8.752000000000001 0.0239765970973 -3.013790607943 0.9997083394021 -80.51729453603 0.9997083394021 -80.51729453603 0.0239780154487 21.993835076382
8.752100000000000 0.0239719158989 -3.017828767216 0.9997084477872 -80.51849714604 0.9997084477872 -80.51849714604 0.0239733362320 21.995487843245
8.752200000000000 0.0239672156054 -3.021879744674 0.9997085565863 -80.51970088240 0.9997085565863 -80.51970088240 0.0239686379320 21.997151297094
8.752300000000000 0.0239624961086 -3.025943620106 0.9997086658014 -80.52090575148 0.9997086658014 -80.52090575148 0.0239639204410 21.998825506462
8.752400000000000 0.0239577572824 -3.030020483572 0.9997087754346 -80.52211176074 0.9997087754346 -80.52211176074 0.0239591836330 22.000510549914
8.752500000000001 0.0239529990328 -3.034110409583 0.9997088854888 -80.52331891578 0.9997088854888 -80.52331891578 0.0239544274136 22.002206486885
8.752600000000001 0.0239482212258 -3.038213491132 0.9997089959653 -80.52452722448 0.9997089959653 -80.52452722448 0.0239496516497 22.003913402109
8.752700000000001 0.0239434237477 -3.042329816584 0.9997091068680 -80.52573669361 0.9997091068680 -80.52573669361 0.0239448562269 22.005631363761
8.752800000000001 0.0239386064816 -3.046459469213 0.9997092181979 -80.52694733007 0.9997092181979 -80.52694733007 0.0239400410289 22.007360448381
8.752900000000000 0.0239337693075 -3.050602538983 0.9997093299581 -80.52815914096 0.9997093299581 -80.52815914096 0.0239352059356 22.009100729864
8.753000000000000 0.0239289121065 -3.054759111919 0.9997094421502 -80.52937213331 0.9997094421502 -80.52937213331 0.0239303508285 22.010852285117
8.753100000000000 0.0239240347560 -3.058929280807 0.9997095547774 -80.53058631440 0.9997095547774 -80.53058631440 0.0239254755848 22.012615189036
8.753200000000001 0.0239191371435 -3.063113129548 0.9997096678419 -80.53180169088 0.9997096678419 -80.53180169088 0.0239205800921 22.014389514301
8.753300000000001 0.0239142191233 -3.067310764043 0.9997097813469 -80.53301827137 0.9997097813469 -80.53301827137 0.0239156642048 22.016175349193
8.753400000000001 0.0239092805812 -3.071522267218 0.9997098952934 -80.53423606261 0.9997098952934 -80.53423606261 0.0239107278092 22.017972769719
8.753500000000001 0.0239043214007 -3.075747728835 0.9997100096847 -80.53545507153 0.9997100096847 -80.53545507153 0.0239057707886 22.019781848916
8.753600000000000 0.0238993414490 -3.079987247233 0.9997101245236 -80.53667530598 0.9997101245236 -80.53667530598 0.0239007930101 22.021602669221
8.753700000000000 0.0238943405930 -3.084240918873 0.9997102398122 -80.53789677382 0.9997102398122 -80.53789677382 0.0238957943411 22.023435315719
8.753800000000000 0.0238893187156 -3.088508832340 0.9997103555528 -80.53911948201 0.9997103555528 -80.53911948201 0.0238907746646 22.025279864108
8.753900000000000 0.0238842756785 -3.092791091710 0.9997104717490 -80.54034343872 0.9997104717490 -80.54034343872 0.0238857338420 22.027136398898
8.754000000000001 0.0238792113586 -3.097087785910 0.9997105884019 -80.54156865124 0.9997105884019 -80.54156865124 0.0238806717509 22.029005002536
8.754100000000001 0.0238741256202 -3.101399018751 0.9997107055153 -80.54279512762 0.9997107055153 -80.54279512762 0.0238755882552 22.030885757932
8.754200000000001 0.0238690183318 -3.105724886080 0.9997108230911 -80.54402287561 0.9997108230911 -80.54402287561 0.0238704832241 22.032778750936
8.754300000000001 0.0238638893339 -3.110065504522 0.9997109411326 -80.54525190468 0.9997109411326 -80.54525190468 0.0238653564978 22.034684079152
8.754400000000000 0.0238587385423 -3.114420943914 0.9997110596417 -80.54648221981 0.9997110596417 -80.54648221981 0.0238602079922 22.036601802678
8.754500000000000 0.0238535657776 -3.118791333440 0.9997111786223 -80.54771383162 0.9997111786223 -80.54771383162 0.0238550375280 22.038532029479
8.754600000000000 0.0238483709202 -3.123176762805 0.9997112980758 -80.54894674720 0.9997112980758 -80.54894674720 0.0238498449861 22.040474840286
8.754700000000000 0.0238431538403 -3.127577331601 0.9997114180053 -80.55018097422 0.9997114180053 -80.55018097422 0.0238446302366 22.042430318174
8.754800000000001 0.0238379143775 -3.131993157779 0.9997115384142 -80.55141652220 0.9997115384142 -80.55141652220 0.0238393931189 22.044398562602
8.754900000000001 0.0238326524073 -3.136424336076 0.9997116593046 -80.55265339849 0.9997116593046 -80.55265339849 0.0238341335092 22.046379656130
8.755000000000001 0.0238273677797 -3.140870977487 0.9997117806792 -80.55389161198 0.9997117806792 -80.55389161198 0.0238288512574 22.048373694460
8.755100000000001 0.0238220603610 -3.145333184191 0.9997119025410 -80.55513117059 0.9997119025410 -80.55513117059 0.0238235462299 22.050380764255
8.755200000000000 0.0238167299941 -3.149811072432 0.9997120248928 -80.55637208362 0.9997120248928 -80.55637208362 0.0238182182700 22.052400964933
8.755300000000000 0.0238113765397 -3.154304750402 0.9997121477385 -80.55761435933 0.9997121477385 -80.55761435933 0.0238128672377 22.054434384864
8.755400000000000 0.0238059998457 -3.158814328672 0.9997122710797 -80.55885800672 0.9997122710797 -80.55885800672 0.0238074929818 22.056481124121
8.755500000000001 0.0238005997778 -3.163339911200 0.9997123949194 -80.56010303374 0.9997123949194 -80.56010303374 0.0238020953682 22.058541270341
8.755600000000001 0.0237951761756 -3.167881618022 0.9997125192610 -80.56134944990 0.9997125192610 -80.56134944990 0.0237966742362 22.060614925290
8.755700000000001 0.0237897288904 -3.172439559475 0.9997126441064 -80.56259726400 0.9997126441064 -80.56259726400 0.0237912294378 22.062702187182
8.755800000000001 0.0237842577697 -3.177013855040 0.9997127694604 -80.56384648508 0.9997127694604 -80.56384648508 0.0237857608199 22.064803150719
8.755900000000000 0.0237787626590 -3.181604618563 0.9997128953249 -80.56509712228 0.9997128953249 -80.56509712229 0.0237802682286 22.066917918310
8.756000000000000 0.0237732434108 -3.186211962484 0.9997130217027 -80.56634918435 0.9997130217027 -80.56634918435 0.0237747515167 22.069046586703
8.756100000000000 0.0237676998674 -3.190836007283 0.9997131485973 -80.56760268063 0.9997131485973 -80.56760268063 0.0237692105262 22.071189257005
8.756200000000000 0.0237621318629 -3.195476876129 0.9997132760114 -80.56885762093 0.9997132760114 -80.56885762093 0.0237636450918 22.073346036936
8.756300000000001 0.0237565392453 -3.200134686372 0.9997134039484 -80.57011401427 0.9997134039484 -80.57011401427 0.0237580550615 22.075517025391
8.756400000000001 0.0237509218614 -3.204809554829 0.9997135324110 -80.57137186974 0.9997135324110 -80.57137186974 0.0237524402820 22.077702323623
8.756500000000001 0.0237452795308 -3.209501617196 0.9997136614033 -80.57263119800 0.9997136614033 -80.57263119800 0.0237468005733 22.079902045284
8.756600000000001 0.0237396121149 -3.214210980050 0.9997137909269 -80.57389200727 0.9997137909269 -80.57389200727 0.0237411357972 22.082116286265
8.756700000000000 0.0237339194329 -3.218937782348 0.9997139209869 -80.57515430828 0.9997139209869 -80.57515430828 0.0237354457723 22.084345159417
8.756800000000000 0.0237282013210 -3.223682145383 0.9997140515849 -80.57641811070 0.9997140515849 -80.57641811070 0.0237297303358 22.086588775249
8.756900000000000 0.0237224576207 -3.228444193748 0.9997141827249 -80.57768342396 0.9997141827249 -80.57768342396 0.0237239893288 22.088847236802
8.757000000000000 0.0237166881553 -3.233224061048 0.9997143144102 -80.57895025851 0.9997143144102 -80.57895025851 0.0237182225750 22.091120658776
8.757100000000001 0.0237108927545 -3.238021875683 0.9997144466434 -80.58021862443 0.9997144466434 -80.58021862443 0.0237124299044 22.093409154459
8.757200000000001 0.0237050712529 -3.242837767646 0.9997145794288 -80.58148853155 0.9997145794288 -80.58148853155 0.0237066111515 22.095712831196
8.757300000000001 0.0236992234788 -3.247671866368 0.9997147127687 -80.58275999002 0.9997147127687 -80.58275999002 0.0237007661450 22.098031804118
8.757400000000001 0.0236933492538 -3.252524310419 0.9997148466675 -80.58403301043 0.9997148466675 -80.58403301043 0.0236948947063 22.100366187952
8.757500000000000 0.0236874484050 -3.257395232094 0.9997149811283 -80.58530760302 0.9997149811283 -80.58530760302 0.0236889966629 22.102716097905
8.757600000000000 0.0236815207434 -3.262284772899 0.9997151161537 -80.58658377898 0.9997151161537 -80.58658377898 0.0236830718263 22.105081659036
8.757700000000000 0.0236755661028 -3.267193064217 0.9997152517477 -80.58786154818 0.9997152517477 -80.58786154818 0.0236771200303 22.107462981290
8.757800000000001 0.0236695843008 -3.272120246228 0.9997153879139 -80.58914092141 0.9997153879139 -80.58914092141 0.0236711410924 22.109860185316
8.757900000000001 0.0236635751456 -3.277066467584 0.9997155246567 -80.59042191007 0.9997155246567 -80.59042191007 0.0236651348209 22.112273394619
8.758000000000001 0.0236575384621 -3.282031861277 0.9997156619782 -80.59170452451 0.9997156619782 -80.59170452451 0.0236591010413 22.114702729516
8.758100000000001 0.0236514740629 -3.287016571536 0.9997157998820 -80.59298877584 0.9997157998820 -80.59298877584 0.0236530395664 22.117148314547
8.758200000000000 0.0236453817559 -3.292020748443 0.9997159383726 -80.59427467545 0.9997159383726 -80.59427467545 0.0236469502041 22.119610274344
8.758300000000000 0.0236392613668 -3.297044527601 0.9997160774528 -80.59556223369 0.9997160774528 -80.59556223369 0.0236408327803 22.122088728499
8.758400000000000 0.0236331126888 -3.302088068995 0.9997162171274 -80.59685146282 0.9997162171274 -80.59685146282 0.0236346870880 22.124583810413
8.758500000000000 0.0236269355374 -3.307151513114 0.9997163573986 -80.59814237374 0.9997163573986 -80.59814237374 0.0236285129438 22.127095647424
8.758600000000001 0.0236207297091 -3.312235019164 0.9997164982713 -80.59943497855 0.9997164982713 -80.59943497855 0.0236223101438 22.129624371726
8.758700000000001 0.0236144950222 -3.317338728602 0.9997166397481 -80.60072928800 0.9997166397481 -80.60072928800 0.0236160785067 22.132170108562
8.758800000000001 0.0236082312660 -3.322462805734 0.9997167818342 -80.60202531461 0.9997167818342 -80.60202531461 0.0236098178217 22.134732994817
8.758900000000001 0.0236019382527 -3.327607397305 0.9997169245327 -80.60332306950 0.9997169245327 -80.60332306950 0.0236035279013 22.137313159291
8.759000000000000 0.0235956157662 -3.332772666852 0.9997170678465 -80.60462256547 0.9997170678465 -80.60462256547 0.0235972085303 22.139910746902
8.759100000000000 0.0235892636150 -3.337958768711 0.9997172117807 -80.60592381389 0.9997172117807 -80.60592381389 0.0235908595166 22.142525885326
8.759200000000000 0.0235828815966 -3.343165861154 0.9997173563389 -80.60722682678 0.9997173563389 -80.60722682678 0.0235844806581 22.145158711333
8.759300000000001 0.0235764694910 -3.348394113573 0.9997175015252 -80.60853161717 0.9997175015252 -80.60853161717 0.0235780717351 22.147809371655
8.759400000000001 0.0235700270948 -3.353643686337 0.9997176473436 -80.60983819713 0.9997176473436 -80.60983819713 0.0235716325443 22.150478003839
8.759500000000001 0.0235635542065 -3.358914737983 0.9997177937976 -80.61114657860 0.9997177937976 -80.61114657860 0.0235651628846 22.153164746020
8.759600000000001 0.0235570505972 -3.364207445084 0.9997179408914 -80.61245677516 0.9997179408914 -80.61245677516 0.0235586625272 22.155869750954
8.759700000000000 0.0235505160686 -3.369521965142 0.9997180886285 -80.61376879857 0.9997180886285 -80.61376879857 0.0235521312745 22.158593155820
8.759800000000000 0.0235439503903 -3.374858480897 0.9997182370148 -80.61508266251 0.9997182370148 -80.61508266251 0.0235455688954 22.161335111290
8.759900000000000 0.0235373533552 -3.380217154054 0.9997183860529 -80.61639837926 0.9997183860529 -80.61639837926 0.0235389751836 22.164095762426
8.760000000000000 0.0235307247328 -3.385598164252 0.9997185357472 -80.61771596248 0.9997185357472 -80.61771596248 0.0235323499090 22.166875264700
8.760100000000001 0.0235240642995 -3.391001687811 0.9997186861018 -80.61903542543 0.9997186861018 -80.61903542543 0.0235256928480 22.169673769955
8.760200000000001 0.0235173718325 -3.396427903419 0.9997188371221 -80.62035678135 0.9997188371221 -80.62035678135 0.0235190037778 22.172491427957
8.760300000000001 0.0235106471140 -3.401876981332 0.9997189888107 -80.62168004314 0.9997189888107 -80.62168004314 0.0235122824814 22.175328391787
8.760400000000001 0.0235038898988 -3.407349112961 0.9997191411724 -80.62300522535 0.9997191411724 -80.62300522535 0.0235055287137 22.178184826328
8.760500000000000 0.0234970999657 -3.412844478909 0.9997192942128 -80.62433234113 0.9997192942128 -80.62433234113 0.0234987422533 22.181060881084
8.760600000000000 0.0234902770813 -3.418363259252 0.9997194479343 -80.62566140428 0.9997194479343 -80.62566140428 0.0234919228677 22.183956720305
8.760700000000000 0.0234834210000 -3.423905650439 0.9997196023429 -80.62699242942 0.9997196023429 -80.62699242942 0.0234850703111 22.186872508195
8.760800000000000 0.0234765314869 -3.429471838686 0.9997197574424 -80.62832543045 0.9997197574424 -80.62832543045 0.0234781843491 22.189808407238
8.760900000000001 0.0234696083092 -3.435062011418 0.9997199132378 -80.62966042121 0.9997199132378 -80.62966042121 0.0234712647488 22.192764577897
8.761000000000001 0.0234626512247 -3.440676359576 0.9997200697327 -80.63099741607 0.9997200697327 -80.63099741607 0.0234643112688 22.195741188717
8.761100000000001 0.0234556599780 -3.446315087021 0.9997202269327 -80.63233643018 0.9997202269327 -80.63233643018 0.0234573236534 22.198738412476
8.761200000000001 0.0234486343205 -3.451978388813 0.9997203848413 -80.63367747828 0.9997203848413 -80.63367747828 0.0234503016551 22.201756423195
8.761300000000000 0.0234415740235 -3.457666454693 0.9997205434641 -80.63502057397 0.9997205434641 -80.63502057397 0.0234432450447 22.204795379339
8.761400000000000 0.0234344788041 -3.463379503715 0.9997207028054 -80.63636573402 0.9997207028054 -80.63636573402 0.0234361535399 22.207855473726
8.761500000000000 0.0234273484315 -3.469117728226 0.9997208628711 -80.63771297216 0.9997208628711 -80.63771297216 0.0234290269097 22.210936867116
8.761600000000001 0.0234201826216 -3.474881345806 0.9997210236642 -80.63906230521 0.9997210236642 -80.63906230521 0.0234218648712 22.214039757337
8.761700000000001 0.0234129811487 -3.480670544885 0.9997211851894 -80.64041374658 0.9997211851894 -80.64041374658 0.0234146671986 22.217164305536
8.761800000000001 0.0234057437275 -3.486485552370 0.9997213474527 -80.64176731322 0.9997213474527 -80.64176731322 0.0234074336069 22.220310705124
8.761900000000001 0.0233984701079 -3.492326572982 0.9997215104591 -80.64312301998 0.9997215104591 -80.64312301998 0.0234001638460 22.223479131938
8.762000000000000 0.0233911600155 -3.498193826672 0.9997216742138 -80.64448088314 0.9997216742138 -80.64448088314 0.0233928576417 22.226669776331
8.762100000000000 0.0233838131758 -3.504087529635 0.9997218387200 -80.64584091899 0.9997218387200 -80.64584091899 0.0233855147207 22.229882833472
8.762200000000000 0.0233764293065 -3.510007913286 0.9997220039850 -80.64720314431 0.9997220039850 -80.64720314431 0.0233781348000 22.233118494939
8.762300000000000 0.0233690081468 -3.515955186840 0.9997221700121 -80.64856757456 0.9997221700121 -80.64856757456 0.0233707176200 22.236376949459
8.762400000000001 0.0233615494215 -3.521929575123 0.9997223368068 -80.64993422610 0.9997223368068 -80.64993422610 0.0233632629053 22.239658389717
8.762500000000001 0.0233540528443 -3.527931310866 0.9997225043751 -80.65130311593 0.9997225043751 -80.65130311593 0.0233557703699 22.242963014482
8.762600000000001 0.0233465181217 -3.533960628415 0.9997226727216 -80.65267426146 0.9997226727216 -80.65267426146 0.0233482397210 22.246291030571
8.762700000000001 0.0233389449794 -3.540017754574 0.9997228418520 -80.65404767901 0.9997228418520 -80.65404767901 0.0233406706840 22.249642632255
8.762800000000000 0.0233313331200 -3.546102928086 0.9997230117711 -80.65542338622 0.9997230117711 -80.65542338622 0.0233330629624 22.253018029558
8.762900000000000 0.0233236822603 -3.552216380136 0.9997231824836 -80.65680139990 0.9997231824836 -80.65680139990 0.0233254162736 22.256417425396
8.763000000000000 0.0233159921002 -3.558358357917 0.9997233539964 -80.65818173791 0.9997233539964 -80.65818173791 0.0233177303170 22.259841028650
8.763100000000000 0.0233082623360 -3.564529107852 0.9997235263148 -80.65956441827 0.9997235263148 -80.65956441827 0.0233100047896 22.263289054416
8.763200000000001 0.0233004926642 -3.570728874909 0.9997236994433 -80.66094945900 0.9997236994433 -80.66094945900 0.0233022393886 22.266761720387
8.763300000000001 0.0232926827934 -3.576957902176 0.9997238733880 -80.66233687741 0.9997238733880 -80.66233687741 0.0232944338226 22.270259234209
8.763400000000001 0.0232848324093 -3.583216444404 0.9997240481540 -80.66372669218 0.9997240481540 -80.66372669218 0.0232865877781 22.273781820198
8.763500000000001 0.0232769411970 -3.589504761172 0.9997242237478 -80.66511892202 0.9997242237478 -80.66511892202 0.0232787009400 22.277329700787
8.763600000000000 0.0232690088387 -3.595823111703 0.9997244001748 -80.66651358580 0.9997244001748 -80.66651358580 0.0232707729912 22.280903103591
8.763700000000000 0.0232610350273 -3.602171749827 0.9997245774401 -80.66791070177 0.9997245774401 -80.66791070177 0.0232628036252 22.284502250790
8.763800000000000 0.0232530194448 -3.608550941758 0.9997247555511 -80.66931028885 0.9997247555511 -80.66931028885 0.0232547925235 22.288127367557
8.763900000000001 0.0232449617497 -3.614960963091 0.9997249345129 -80.67071236730 0.9997249345129 -80.67071236730 0.0232467393457 22.291778698517
8.764000000000001 0.0232368616360 -3.621402068897 0.9997251143304 -80.67211695530 0.9997251143304 -80.67211695530 0.0232386437864 22.295456468997
8.764100000000001 0.0232287187631 -3.627874540216 0.9997252950101 -80.67352407312 0.9997252950101 -80.67352407312 0.0232305055051 22.299160921632
8.764200000000001 0.0232205327872 -3.634378660905 0.9997254765586 -80.67493374116 0.9997254765586 -80.67493374116 0.0232223241584 22.302892301890
8.764300000000000 0.0232123033815 -3.640914703062 0.9997256589816 -80.67634597886 0.9997256589816 -80.67634597886 0.0232140994201 22.306650848802
8.764400000000000 0.0232040302063 -3.647482949180 0.9997258422851 -80.67776080641 0.9997258422851 -80.67776080641 0.0232058309508 22.310436808288
8.764500000000000 0.0231957129089 -3.654083692358 0.9997260264759 -80.67917824478 0.9997260264759 -80.67917824478 0.0231975183979 22.314250433753
8.764600000000000 0.0231873511473 -3.660717218685 0.9997262115604 -80.68059831430 0.9997262115604 -80.68059831430 0.0231891614200 22.318091974398
8.764700000000001 0.0231789445786 -3.667383813241 0.9997263975437 -80.68202103534 0.9997263975437 -80.68202103534 0.0231807596750 22.321961683618
8.764800000000001 0.0231704928274 -3.674083786476 0.9997265844326 -80.68344643021 0.9997265844326 -80.68344643021 0.0231723127879 22.325859830871
8.764900000000001 0.0231619955417 -3.680817435526 0.9997267722342 -80.68487451986 0.9997267722342 -80.68487451986 0.0231638204069 22.329786673115
8.765000000000001 0.0231534523558 -3.687585064879 0.9997269609544 -80.68630532601 0.9997269609544 -80.68630532601 0.0231552821668 22.333742478584
8.765100000000000 0.0231448629222 -3.694386970097 0.9997271505995 -80.68773886935 0.9997271505995 -80.68773886935 0.0231466977207 22.337727504969
8.765200000000000 0.0231362268477 -3.701223478258 0.9997273411771 -80.68917517324 0.9997273411771 -80.68917517324 0.0231380666757 22.341742035515
8.765300000000000 0.0231275437581 -3.708094902929 0.9997275326933 -80.69061425993 0.9997275326933 -80.69061425993 0.0231293886581 22.345786346667
8.765400000000001 0.0231188132679 -3.715001564058 0.9997277251535 -80.69205615233 0.9997277251535 -80.69205615233 0.0231206632837 22.349860724002
8.765500000000001 0.0231100350301 -3.721943772720 0.9997279185684 -80.69350087115 0.9997279185684 -80.69350087115 0.0231118902038 22.353965420122
8.765600000000001 0.0231012086131 -3.728921870818 0.9997281129402 -80.69494844197 0.9997281129402 -80.69494844197 0.0231030689899 22.358100757905
8.765700000000001 0.0230923336500 -3.735936180986 0.9997283082783 -80.69639888665 0.9997283082783 -80.69639888665 0.0230941992744 22.362267006679
8.765800000000000 0.0230834097358 -3.742987046679 0.9997285045906 -80.69785222929 0.9997285045906 -80.69785222929 0.0230852806522 22.366464463220
8.765900000000000 0.0230744364767 -3.750074796587 0.9997287018816 -80.69930849330 0.9997287018816 -80.69930849330 0.0230763127312 22.370693426976
8.766000000000000 0.0230654134653 -3.757199780479 0.9997289001601 -80.70076770292 0.9997289001601 -80.70076770292 0.0230672951040 22.374954196520
8.766100000000000 0.0230563402866 -3.764362349922 0.9997290994332 -80.70222988284 0.9997290994332 -80.70222988284 0.0230582273560 22.379247080312
8.766200000000001 0.0230472165423 -3.771562844299 0.9997292997068 -80.70369505674 0.9997292997068 -80.70369505674 0.0230491090902 22.383572381313
8.766300000000001 0.0230380418013 -3.778801631931 0.9997295009896 -80.70516325029 0.9997295009896 -80.70516325029 0.0230399398753 22.387930416687
8.766400000000001 0.0230288156295 -3.786079083700 0.9997297032900 -80.70663448933 0.9997297032900 -80.70663448933 0.0230307192775 22.392321507534
8.766500000000001 0.0230195376358 -3.793395536883 0.9997299066130 -80.70810879712 0.9997299066130 -80.70810879712 0.0230214469071 22.396745958805
8.766600000000000 0.0230102073588 -3.800751383128 0.9997301109674 -80.70958620110 0.9997301109674 -80.70958620110 0.0230121223029 22.401204109718
8.766700000000000 0.0230008243701 -3.808146993394 0.9997303163613 -80.71106672680 0.9997303163613 -80.71106672680 0.0230027450370 22.405696283511
8.766800000000000 0.0229913882207 -3.815582752528 0.9997305228025 -80.71255040092 0.9997305228025 -80.71255040092 0.0229933146608 22.410222817494
8.766900000000000 0.0229818984919 -3.823059023292 0.9997307302968 -80.71403724839 0.9997307302968 -80.71403724839 0.0229838307569 22.414784037019
8.767000000000001 0.0229723546835 -3.830576227555 0.9997309388531 -80.71552729896 0.9997309388531 -80.71552729896 0.0229742928258 22.419380310997
8.767100000000001 0.0229627563666 -3.838134746386 0.9997311484807 -80.71702057819 0.9997311484807 -80.71702057819 0.0229647004383 22.424011966488
8.767200000000001 0.0229531030967 -3.845734966436 0.9997313591864 -80.71851711255 0.9997313591864 -80.71851711255 0.0229550531507 22.428679346498
8.767300000000001 0.0229433943825 -3.853377305849 0.9997315709779 -80.72001693127 0.9997315709779 -80.72001693127 0.0229453504731 22.433382822804
8.767400000000000 0.0229336297528 -3.861062178541 0.9997317838648 -80.72152006242 0.9997317838648 -80.72152006242 0.0229355919340 22.438122751458
8.767500000000000 0.0229238087396 -3.868789990524 0.9997319978541 -80.72302653386 0.9997319978541 -80.72302653386 0.0229257770667 22.442899495069
8.767600000000000 0.0229139308474 -3.876561170167 0.9997322129541 -80.72453637508 0.9997322129541 -80.72453637508 0.0229159053765 22.447713431416
8.767700000000001 0.0229039956038 -3.884376134409 0.9997324291732 -80.72604961423 0.9997324291732 -80.72604961423 0.0229059763914 22.452564925603
8.767800000000001 0.0228940024873 -3.892235333050 0.9997326465203 -80.72756628234 0.9997326465203 -80.72756628234 0.0228959895908 22.457454373339
8.767900000000001 0.0228839510190 -3.900139191561 0.9997328650043 -80.72908640799 0.9997328650043 -80.72908640799 0.0228859444961 22.462382146968
8.768000000000001 0.0228738406893 -3.908088156668 0.9997330846340 -80.73061002149 0.9997330846340 -80.73061002149 0.0228758405985 22.467348638529
8.768100000000000 0.0228636709870 -3.916082676012 0.9997333054175 -80.73213715332 0.9997333054175 -80.73213715332 0.0228656773875 22.472354245480
8.768200000000000 0.0228534413842 -3.924123209368 0.9997335273629 -80.73366783487 0.9997335273629 -80.73366783487 0.0228554543368 22.477399376896
8.768300000000000 0.0228431513770 -3.932210210102 0.9997337504805 -80.73520209623 0.9997337504805 -80.73520209623 0.0228451709422 22.482484424607
8.768400000000000 0.0228328004202 -3.940344152709 0.9997339747782 -80.73673996985 0.9997339747782 -80.73673996985 0.0228348266599 22.487609812956
8.768500000000001 0.0228223879789 -3.948525511988 0.9997342002656 -80.73828148760 0.9997342002656 -80.73828148760 0.0228244209556 22.492775958187
8.768600000000001 0.0228119135094 -3.956754772887 0.9997344269532 -80.73982668190 0.9997344269532 -80.73982668190 0.0228139532858 22.497983282246
8.768700000000001 0.0228013764893 -3.965032400020 0.9997346548478 -80.74137558388 0.9997346548478 -80.74137558388 0.0228034231297 22.503232204434
8.768800000000001 0.0227907763013 -3.973358930563 0.9997348839607 -80.74292823028 0.9997348839607 -80.74292823028 0.0227928298707 22.508523193958
8.768900000000000 0.0227801124297 -3.981734834956 0.9997351143008 -80.74448465188 0.9997351143008 -80.74448465188 0.0227821729937 22.513856666226
8.769000000000000 0.0227693843104 -3.990160616942 0.9997353458771 -80.74604488231 0.9997353458771 -80.74604488231 0.0227714519355 22.519233067621
8.769100000000000 0.0227585913620 -3.998636794205 0.9997355786993 -80.74760895621 0.9997355786993 -80.74760895621 0.0227606661158 22.524652856642
8.769200000000000 0.0227477329906 -4.007163899913 0.9997358127786 -80.74917690901 0.9997358127786 -80.74917690901 0.0227498149408 22.530116497805
8.769300000000001 0.0227368085867 -4.015742472431 0.9997360481238 -80.75074877700 0.9997360481238 -80.75074877700 0.0227388978029 22.535624473401
8.769400000000001 0.0227258175998 -4.024373018499 0.9997362847445 -80.75232459305 0.9997362847445 -80.75232459305 0.0227279141519 22.541177230572
8.769500000000001 0.0227147594108 -4.033056092519 0.9997365226510 -80.75390439406 0.9997365226510 -80.75390439406 0.0227168633699 22.546775258668
8.769600000000001 0.0227036333828 -4.041792264097 0.9997367618544 -80.75548821801 0.9997367618544 -80.75548821801 0.0227057448205 22.552419059908
8.769700000000000 0.0226924389358 -4.050582064491 0.9997370023634 -80.75707609948 0.9997370023634 -80.75707609948 0.0226945579253 22.558109108787
8.769800000000000 0.0226811754251 -4.059426077512 0.9997372441903 -80.75866807696 0.9997372441903 -80.75866807696 0.0226833020397 22.563845914602
8.769900000000000 0.0226698422025 -4.068324882291 0.9997374873437 -80.76026418906 0.9997374873437 -80.76026418906 0.0226719765175 22.569630000059
8.770000000000001 0.0226584386555 -4.077279046107 0.9997377318349 -80.76186447235 0.9997377318349 -80.76186447235 0.0226605807465 22.575461862411
8.770100000000001 0.0226469641086 -4.086289181553 0.9997379776764 -80.76346896714 0.9997379776764 -80.76346896714 0.0226491140519 22.581342037814