! Sonnet Data File
! From: emgraph Version : 16.52
! From Project: 171117_Xmon_fullysym
! Data is De-embedded 
! Data File Written: 11/26/2017 17:14:23
!< HDATE 11/22/2017 16:48:52
!< MDATE 11/23/2017 10:16:42
!< PARAMS
!< Lj = 11.0
!< Gap = 1.0
!< Pwid = 2000.0
!< Airgap = 6.0
!< Width = 10.0
!< Lj1 = 10.35
!< END PARAMS
# GHZ S MA R 50.90000
8.680000000000000 0.0251320525294 -1.484781727119 0.9996807481771 -79.78171177976 0.9996807481755 -79.78171177964 0.0251330613663 21.931982672656
!< P1 F=8.68 Eeff=(6.44843488 -2.9797e-5) Z0=(50.9086135 1.17022e-4) R=0.0 C=0.0 
!< P2 F=8.68 Eeff=(6.44843488 -2.9797e-5) Z0=(50.9086135 1.17022e-4) R=0.0 C=0.0 
8.680100000000001 0.0251313445714 -1.486329948632 0.9996807655590 -79.78268062668 0.9996807655590 -79.78268062668 0.0251323535512 21.931594351299
8.680200000000001 0.0251306353716 -1.487878886767 0.9996807829708 -79.78364954635 0.9996807829708 -79.78364954635 0.0251316444963 21.931206611717
8.680300000000001 0.0251299249236 -1.489428550658 0.9996808004131 -79.78461853907 0.9996808004131 -79.78461853907 0.0251309341935 21.930819456455
8.680400000000001 0.0251292132242 -1.490978943052 0.9996808178863 -79.78558760501 0.9996808178863 -79.78558760501 0.0251302226396 21.930432886303
8.680500000000000 0.0251285002699 -1.492530065664 0.9996808353902 -79.78655674439 0.9996808353902 -79.78655674439 0.0251295098311 21.930046903378
8.680600000000000 0.0251277860578 -1.494081919989 0.9996808529249 -79.78752595738 0.9996808529249 -79.78752595738 0.0251287957652 21.929661509317
8.680700000000000 0.0251270705859 -1.495634507988 0.9996808704907 -79.78849524410 0.9996808704907 -79.78849524410 0.0251280804398 21.929276704568
8.680800000000001 0.0251263538506 -1.497187831193 0.9996808880873 -79.78946460475 0.9996808880873 -79.78946460475 0.0251273638514 21.928892491496
8.680900000000001 0.0251256358491 -1.498741891512 0.9996809057150 -79.79043403951 0.9996809057150 -79.79043403951 0.0251266459971 21.928508871236
8.681000000000001 0.0251249165792 -1.500296690222 0.9996809233738 -79.79140354849 0.9996809233738 -79.79140354849 0.0251259268749 21.928125845007
8.681100000000001 0.0251241960380 -1.501852229359 0.9996809410637 -79.79237313187 0.9996809410637 -79.79237313187 0.0251252064817 21.927743414018
8.681200000000000 0.0251234742204 -1.503408511845 0.9996809587850 -79.79334278997 0.9996809587850 -79.79334278997 0.0251244848123 21.927361580912
8.681300000000000 0.0251227511257 -1.504965538064 0.9996809765375 -79.79431252280 0.9996809765375 -79.79431252280 0.0251237618664 21.926980346090
8.681400000000000 0.0251220267499 -1.506523310833 0.9996809943216 -79.79528233062 0.9996809943216 -79.79528233062 0.0251230376395 21.926599711245
8.681500000000000 0.0251213010889 -1.508081831995 0.9996810121370 -79.79625221365 0.9996810121370 -79.79625221365 0.0251223121279 21.926219678797
8.681600000000001 0.0251205741427 -1.509641101976 0.9996810299839 -79.79722217190 0.9996810299839 -79.79722217190 0.0251215853315 21.925840248778
8.681700000000001 0.0251198459052 -1.511201124627 0.9996810478626 -79.79819220574 0.9996810478626 -79.79819220574 0.0251208572440 21.925461423736
8.681800000000001 0.0251191163763 -1.512761899861 0.9996810657728 -79.79916231516 0.9996810657728 -79.79916231516 0.0251201278656 21.925083204181
8.681900000000001 0.0251183855497 -1.514323431144 0.9996810837148 -79.80013250054 0.9996810837148 -79.80013250054 0.0251193971898 21.924705593178
8.682000000000000 0.0251176534239 -1.515885720183 0.9996811016888 -79.80110276196 0.9996811016888 -79.80110276196 0.0251186652152 21.924328590917
8.682100000000000 0.0251169199965 -1.517448767395 0.9996811196944 -79.80207309957 0.9996811196944 -79.80207309957 0.0251179319394 21.923952199749
8.682200000000000 0.0251161852640 -1.519012575870 0.9996811377321 -79.80304351357 0.9996811377321 -79.80304351357 0.0251171973587 21.923576420400
8.682300000000000 0.0251154492231 -1.520577147380 0.9996811558019 -79.80401400416 0.9996811558019 -79.80401400416 0.0251164614700 21.923201254816
8.682400000000001 0.0251147118707 -1.522142483571 0.9996811739037 -79.80498457151 0.9996811739037 -79.80498457151 0.0251157242703 21.922826704567
8.682500000000001 0.0251139732035 -1.523708586640 0.9996811920378 -79.80595521583 0.9996811920378 -79.80595521583 0.0251149857560 21.922452771259
8.682600000000001 0.0251132332188 -1.525275458031 0.9996812102040 -79.80692593727 0.9996812102040 -79.80692593727 0.0251142459248 21.922079456374
8.682700000000001 0.0251124919139 -1.526843099893 0.9996812284026 -79.80789673599 0.9996812284026 -79.80789673599 0.0251135047736 21.921706760995
8.682800000000000 0.0251117492838 -1.528411514814 0.9996812466337 -79.80886761229 0.9996812466337 -79.80886761229 0.0251127622975 21.921334687746
8.682900000000000 0.0251110053288 -1.529980702780 0.9996812648972 -79.80983856614 0.9996812648972 -79.80983856614 0.0251120184971 21.920963236593
8.683000000000000 0.0251102600419 -1.531550668263 0.9996812831933 -79.81080959797 0.9996812831933 -79.81080959797 0.0251112733650 21.920592410656
8.683100000000001 0.0251095134218 -1.533121411539 0.9996813015220 -79.81178070784 0.9996813015220 -79.81178070784 0.0251105269001 21.920222211080
8.683200000000001 0.0251087654659 -1.534692934709 0.9996813198833 -79.81275189592 0.9996813198833 -79.81275189592 0.0251097790997 21.919852638875
8.683300000000001 0.0251080161692 -1.536265240575 0.9996813382776 -79.81372316248 0.9996813382776 -79.81372316248 0.0251090299591 21.919483696396
8.683400000000001 0.0251072655294 -1.537838330617 0.9996813567046 -79.81469450767 0.9996813567046 -79.81469450767 0.0251082794756 21.919115385020
8.683500000000000 0.0251065135436 -1.539412206699 0.9996813751646 -79.81566593167 0.9996813751646 -79.81566593167 0.0251075276464 21.918747706063
8.683600000000000 0.0251057602105 -1.540986869437 0.9996813936575 -79.81663743454 0.9996813936575 -79.81663743454 0.0251067744705 21.918380660512
8.683700000000000 0.0251050055218 -1.542562323977 0.9996814121836 -79.81760901678 0.9996814121836 -79.81760901678 0.0251060199392 21.918014251916
8.683800000000000 0.0251042494792 -1.544138569509 0.9996814307428 -79.81858067828 0.9996814307428 -79.81858067828 0.0251052640544 21.917648479806
8.683900000000001 0.0251034920766 -1.545715609161 0.9996814493351 -79.81955241941 0.9996814493352 -79.81955241941 0.0251045068101 21.917283347398
8.684000000000001 0.0251027333133 -1.547293444040 0.9996814679608 -79.82052424020 0.9996814679608 -79.82052424020 0.0251037482054 21.916918854731
8.684100000000001 0.0251019731824 -1.548872078285 0.9996814866201 -79.82149614106 0.9996814866201 -79.82149614106 0.0251029882334 21.916555004951
8.684200000000001 0.0251012116844 -1.550451511038 0.9996815053125 -79.82246812196 0.9996815053125 -79.82246812196 0.0251022268949 21.916191798581
8.684300000000000 0.0251004488127 -1.552031746910 0.9996815240387 -79.82344018330 0.9996815240387 -79.82344018330 0.0251014641829 21.915829238300
8.684400000000000 0.0250996845667 -1.553612786136 0.9996815427984 -79.82441232511 0.9996815427984 -79.82441232511 0.0251007000970 21.915467324616
8.684500000000000 0.0250989189409 -1.555194631740 0.9996815615918 -79.82538454770 0.9996815615918 -79.82538454770 0.0250999346318 21.915106060398
8.684600000000000 0.0250981519333 -1.556777285384 0.9996815804189 -79.82635685120 0.9996815804189 -79.82635685120 0.0250991677851 21.914745446442
8.684700000000001 0.0250973835406 -1.558360748952 0.9996815992799 -79.82732923580 0.9996815992799 -79.82732923580 0.0250983995537 21.914385484484
8.684800000000001 0.0250966137582 -1.559945025342 0.9996816181749 -79.82830170177 0.9996816181749 -79.82830170177 0.0250976299330 21.914026176536
8.684900000000001 0.0250958425844 -1.561530115501 0.9996816371039 -79.82927424922 0.9996816371039 -79.82927424922 0.0250968589213 21.913667523939
8.685000000000000 0.0250950700146 -1.563116022264 0.9996816560670 -79.83024687841 0.9996816560670 -79.83024687841 0.0250960865140 21.913309528600
8.685100000000000 0.0250942960461 -1.564702747198 0.9996816750642 -79.83121958951 0.9996816750642 -79.83121958951 0.0250953127083 21.912952192216
8.685200000000000 0.0250935206747 -1.566290292758 0.9996816940955 -79.83219238275 0.9996816940955 -79.83219238275 0.0250945375003 21.912595516701
8.685300000000000 0.0250927438997 -1.567878660097 0.9996817131613 -79.83316525819 0.9996817131613 -79.83316525819 0.0250937608889 21.912239502271
8.685400000000001 0.0250919657128 -1.569467853511 0.9996817322616 -79.83413821630 0.9996817322616 -79.83413821630 0.0250929828661 21.911884153116
8.685500000000001 0.0250911861142 -1.571057873360 0.9996817513963 -79.83511125708 0.9996817513963 -79.83511125708 0.0250922034319 21.911529469139
8.685600000000001 0.0250904051001 -1.572648721243 0.9996817705654 -79.83608438075 0.9996817705654 -79.83608438075 0.0250914225828 21.911175452761
8.685700000000001 0.0250896226665 -1.574240400555 0.9996817897692 -79.83705758755 0.9996817897692 -79.83705758755 0.0250906403144 21.910822105297
8.685800000000000 0.0250888388101 -1.575832913095 0.9996818090079 -79.83803087768 0.9996818090079 -79.83803087768 0.0250898566237 21.910469428475
8.685900000000000 0.0250880535264 -1.577426261190 0.9996818282813 -79.83900425139 0.9996818282813 -79.83900425139 0.0250890715060 21.910117424832
8.686000000000000 0.0250872668136 -1.579020446308 0.9996818475896 -79.83997770879 0.9996818475896 -79.83997770879 0.0250882849597 21.909766095105
8.686100000000000 0.0250864786671 -1.580615471144 0.9996818669329 -79.84095125016 0.9996818669329 -79.84095125016 0.0250874969801 21.909415441660
8.686200000000001 0.0250856890836 -1.582211337818 0.9996818863112 -79.84192487568 0.9996818863112 -79.84192487568 0.0250867075639 21.909065466021
8.686300000000001 0.0250848980590 -1.583808048771 0.9996819057247 -79.84289858561 0.9996819057247 -79.84289858561 0.0250859167070 21.908716170345
8.686400000000001 0.0250841055923 -1.585405604756 0.9996819251734 -79.84387237999 0.9996819251734 -79.84387237999 0.0250851244084 21.908367555176
8.686500000000001 0.0250833116752 -1.587004010228 0.9996819446573 -79.84484625931 0.9996819446573 -79.84484625931 0.0250843306599 21.908019624726
8.686600000000000 0.0250825163092 -1.588603265415 0.9996819641767 -79.84582022350 0.9996819641767 -79.84582022350 0.0250835354627 21.907672377928
8.686700000000000 0.0250817194882 -1.590203373180 0.9996819837315 -79.84679427290 0.9996819837315 -79.84679427290 0.0250827388111 21.907325818108
8.686800000000000 0.0250809212078 -1.591804336210 0.9996820033218 -79.84776840778 0.9996820033218 -79.84776840778 0.0250819407005 21.906979947657
8.686900000000001 0.0250801214667 -1.593406156234 0.9996820229479 -79.84874262821 0.9996820229479 -79.84874262821 0.0250811411295 21.906634766482
8.687000000000001 0.0250793202603 -1.595008835056 0.9996820426096 -79.84971693446 0.9996820426096 -79.84971693446 0.0250803400937 21.906290277671
8.687100000000001 0.0250785175839 -1.596612376179 0.9996820623072 -79.85069132683 0.9996820623072 -79.85069132683 0.0250795375882 21.905946483040
8.687200000000001 0.0250777134350 -1.598216780557 0.9996820820406 -79.85166580543 0.9996820820406 -79.85166580543 0.0250787336108 21.905603384380
8.687300000000000 0.0250769078101 -1.599822050870 0.9996821018100 -79.85264037048 0.9996821018100 -79.85264037048 0.0250779281578 21.905260982985
8.687400000000000 0.0250761007045 -1.601428189929 0.9996821216155 -79.85361502227 0.9996821216155 -79.85361502227 0.0250771212244 21.904919281298
8.687500000000000 0.0250752921161 -1.603035198572 0.9996821414569 -79.85458976091 0.9996821414569 -79.85458976091 0.0250763128088 21.904578280780
8.687600000000000 0.0250744820403 -1.604643080696 0.9996821613349 -79.85556458669 0.9996821613349 -79.85556458669 0.0250755029060 21.904237982891
8.687700000000001 0.0250736704726 -1.606251837918 0.9996821812491 -79.85653949984 0.9996821812491 -79.85653949984 0.0250746915119 21.903898390632
8.687800000000001 0.0250728574103 -1.607861472241 0.9996822011996 -79.85751450055 0.9996822011996 -79.85751450055 0.0250738786236 21.903559505272
8.687900000000001 0.0250720428497 -1.609471986427 0.9996822211867 -79.85848958902 0.9996822211867 -79.85848958902 0.0250730642374 21.903221328137
8.688000000000001 0.0250712267878 -1.611083381916 0.9996822412104 -79.85946476544 0.9996822412104 -79.85946476544 0.0250722483502 21.902883861367
8.688100000000000 0.0250704092185 -1.612695662277 0.9996822612707 -79.86044003016 0.9996822612707 -79.86044003016 0.0250714309562 21.902547107712
8.688200000000000 0.0250695901395 -1.614308829179 0.9996822813677 -79.86141538332 0.9996822813677 -79.86141538332 0.0250706120529 21.902211068383
8.688300000000000 0.0250687695464 -1.615922885417 0.9996823015017 -79.86239082518 0.9996823015017 -79.86239082518 0.0250697916359 21.901875745455
8.688400000000000 0.0250679474373 -1.617537832057 0.9996823216726 -79.86336635584 0.9996823216726 -79.86336635584 0.0250689697034 21.901541140143
8.688500000000001 0.0250671238068 -1.619153672485 0.9996823418804 -79.86434197563 0.9996823418804 -79.86434197563 0.0250681462498 21.901207255012
8.688600000000001 0.0250662986514 -1.620770408393 0.9996823621253 -79.86531768475 0.9996823621253 -79.86531768475 0.0250673212720 21.900874092039
8.688700000000001 0.0250654719658 -1.622388043680 0.9996823824075 -79.86629348352 0.9996823824075 -79.86629348352 0.0250664947642 21.900541653411
8.688800000000001 0.0250646437492 -1.624006578725 0.9996824027270 -79.86726937199 0.9996824027270 -79.86726937199 0.0250656667259 21.900209939910
8.688900000000000 0.0250638139947 -1.625626017574 0.9996824230838 -79.86824535055 0.9996824230838 -79.86824535055 0.0250648371501 21.899878954845
8.689000000000000 0.0250629827012 -1.627246361325 0.9996824434782 -79.86922141928 0.9996824434782 -79.86922141928 0.0250640060358 21.899548698597
8.689100000000000 0.0250621498622 -1.628867613243 0.9996824639101 -79.87019757854 0.9996824639101 -79.87019757854 0.0250631733765 21.899219174845
8.689200000000001 0.0250613154757 -1.630489775175 0.9996824843796 -79.87117382847 0.9996824843796 -79.87117382847 0.0250623391701 21.898890384344
8.689300000000001 0.0250604795375 -1.632112849426 0.9996825048868 -79.87215016932 0.9996825048868 -79.87215016932 0.0250615034123 21.898562329441
8.689400000000001 0.0250596420424 -1.633736839412 0.9996825254320 -79.87312660139 0.9996825254320 -79.87312660139 0.0250606660982 21.898235012292
8.689500000000001 0.0250588029883 -1.635361746318 0.9996825460150 -79.87410312479 0.9996825460150 -79.87410312479 0.0250598272255 21.897908434357
8.689600000000000 0.0250579623692 -1.636987573446 0.9996825666360 -79.87507973988 0.9996825666360 -79.87507973988 0.0250589867884 21.897582598688
8.689700000000000 0.0250571201841 -1.638614322538 0.9996825872953 -79.87605644674 0.9996825872953 -79.87605644674 0.0250581447856 21.897257505246
8.689800000000000 0.0250562764260 -1.640241996920 0.9996826079927 -79.87703324576 0.9996826079927 -79.87703324576 0.0250573012102 21.896933158086
8.689900000000000 0.0250554310923 -1.641870598403 0.9996826287283 -79.87801013709 0.9996826287283 -79.87801013709 0.0250564560597 21.896609558377
8.690000000000001 0.0250545841790 -1.643500129517 0.9996826495024 -79.87898712098 0.9996826495024 -79.87898712098 0.0250556093301 21.896286708175
8.690100000000001 0.0250537356815 -1.645130592980 0.9996826703149 -79.87996419769 0.9996826703149 -79.87996419769 0.0250547610168 21.895964609819
8.690200000000001 0.0250528855954 -1.646761991788 0.9996826911661 -79.88094136749 0.9996826911661 -79.88094136749 0.0250539111153 21.895643265129
8.690300000000001 0.0250520339177 -1.648394327440 0.9996827120558 -79.88191863055 0.9996827120558 -79.88191863055 0.0250530596227 21.895322676335
8.690400000000000 0.0250511806439 -1.650027603023 0.9996827329843 -79.88289598713 0.9996827329843 -79.88289598713 0.0250522065345 21.895002845022
8.690500000000000 0.0250503257714 -1.651661820268 0.9996827539518 -79.88387343739 0.9996827539518 -79.88387343739 0.0250513518479 21.894683772800
8.690600000000000 0.0250494692939 -1.653296982571 0.9996827749581 -79.88485098170 0.9996827749581 -79.88485098170 0.0250504955569 21.894365462950
8.690700000000001 0.0250486112077 -1.654933092477 0.9996827960035 -79.88582862028 0.9996827960035 -79.88582862028 0.0250496376577 21.894047917215
8.690800000000001 0.0250477515078 -1.656570153440 0.9996828170882 -79.88680635343 0.9996828170882 -79.88680635343 0.0250487781451 21.893731137665
8.690900000000001 0.0250468901938 -1.658208165067 0.9996828382120 -79.88778418116 0.9996828382120 -79.88778418116 0.0250479170189 21.893415125487
8.691000000000001 0.0250460272587 -1.659847132184 0.9996828593752 -79.88876210388 0.9996828593752 -79.88876210388 0.0250470542722 21.893099883341
8.691100000000000 0.0250451626980 -1.661487057373 0.9996828805779 -79.88974012187 0.9996828805779 -79.88974012187 0.0250461899002 21.892785413821
8.691200000000000 0.0250442965086 -1.663127942405 0.9996829018200 -79.89071823530 0.9996829018200 -79.89071823530 0.0250453239002 21.892471718559
8.691300000000000 0.0250434286858 -1.664769790429 0.9996829231018 -79.89169644446 0.9996829231018 -79.89169644446 0.0250444562671 21.892158799877
8.691400000000000 0.0250425592252 -1.666412603795 0.9996829444233 -79.89267474960 0.9996829444233 -79.89267474960 0.0250435869967 21.891846660104
8.691500000000001 0.0250416881244 -1.668056384783 0.9996829657847 -79.89365315086 0.9996829657847 -79.89365315086 0.0250427160866 21.891535300019
8.691600000000001 0.0250408153751 -1.669701137512 0.9996829871860 -79.89463164872 0.9996829871860 -79.89463164872 0.0250418435286 21.891224724261
8.691700000000001 0.0250399409773 -1.671346862635 0.9996830086272 -79.89561024321 0.9996830086272 -79.89561024321 0.0250409693224 21.890914932814
8.691800000000001 0.0250390649250 -1.672993563838 0.9996830301087 -79.89658893465 0.9996830301087 -79.89658893465 0.0250400934623 21.890605928362
8.691900000000000 0.0250381872133 -1.674641243869 0.9996830516304 -79.89756772335 0.9996830516304 -79.89756772335 0.0250392159433 21.890297713681
8.692000000000000 0.0250373078386 -1.676289905028 0.9996830731923 -79.89854660952 0.9996830731923 -79.89854660952 0.0250383367617 21.889990290663
8.692100000000000 0.0250364267972 -1.677939549914 0.9996830947947 -79.89952559337 0.9996830947947 -79.89952559337 0.0250374559139 21.889683660838
8.692200000000000 0.0250355440839 -1.679590181538 0.9996831164377 -79.90050467520 0.9996831164377 -79.90050467520 0.0250365733947 21.889377827005
8.692300000000001 0.0250346596929 -1.681241803368 0.9996831381213 -79.90148385537 0.9996831381213 -79.90148385537 0.0250356891983 21.889072792020
8.692400000000001 0.0250337736234 -1.682894416337 0.9996831598457 -79.90246313392 0.9996831598457 -79.90246313392 0.0250348033238 21.888768556312
8.692500000000001 0.0250328858682 -1.684548024231 0.9996831816109 -79.90344251126 0.9996831816109 -79.90344251126 0.0250339157643 21.888465123723
8.692600000000001 0.0250319964238 -1.686202629641 0.9996832034170 -79.90442198762 0.9996832034170 -79.90442198762 0.0250330265160 21.888162495837
8.692700000000000 0.0250311052866 -1.687858234837 0.9996832252641 -79.90540156319 0.9996832252641 -79.90540156319 0.0250321355753 21.887860674560
8.692800000000000 0.0250302124502 -1.689514843556 0.9996832471524 -79.90638123837 0.9996832471524 -79.90638123837 0.0250312429360 21.887559663099
8.692900000000000 0.0250293179107 -1.691172458233 0.9996832690819 -79.90736101337 0.9996832690819 -79.90736101337 0.0250303485941 21.887259463346
8.693000000000001 0.0250284216658 -1.692831080709 0.9996832910528 -79.90834088833 0.9996832910528 -79.90834088833 0.0250294525473 21.886960076475
8.693100000000001 0.0250275237089 -1.694490714714 0.9996833130652 -79.90932086364 0.9996833130652 -79.90932086364 0.0250285547890 21.886661505894
8.693200000000001 0.0250266240353 -1.696151363193 0.9996833351192 -79.91030093958 0.9996833351192 -79.91030093958 0.0250276553144 21.886363753879
8.693300000000001 0.0250257226428 -1.697813027523 0.9996833572147 -79.91128111628 0.9996833572147 -79.91128111628 0.0250267541215 21.886066821887
8.693400000000000 0.0250248195239 -1.699475712485 0.9996833793521 -79.91226139418 0.9996833793521 -79.91226139418 0.0250258512027 21.885770713178
8.693500000000000 0.0250239146753 -1.701139419689 0.9996834015312 -79.91324177346 0.9996834015312 -79.91324177346 0.0250249465547 21.885475429951
8.693600000000000 0.0250230080927 -1.702804152382 0.9996834237525 -79.91422225439 0.9996834237525 -79.91422225439 0.0250240401733 21.885180973886
8.693700000000000 0.0250220997723 -1.704469912560 0.9996834460157 -79.91520283720 0.9996834460157 -79.91520283720 0.0250231320545 21.884887347432
8.693800000000001 0.0250211897082 -1.706136704209 0.9996834683213 -79.91618352222 0.9996834683212 -79.91618352222 0.0250222221926 21.884594553052
8.693900000000001 0.0250202778956 -1.707804529854 0.9996834906690 -79.91716430975 0.9996834906690 -79.91716430975 0.0250213105827 21.884302593563
8.694000000000001 0.0250193643308 -1.709473392137 0.9996835130592 -79.91814519999 0.9996835130592 -79.91814519999 0.0250203972210 21.884011470744
8.694100000000001 0.0250184490077 -1.711143294702 0.9996835354920 -79.91912619331 0.9996835354920 -79.91912619331 0.0250194821016 21.883721187446
8.694200000000000 0.0250175319250 -1.712814238601 0.9996835579673 -79.92010728978 0.9996835579673 -79.92010728978 0.0250185652231 21.883431744731
8.694300000000000 0.0250166130739 -1.714486228982 0.9996835804854 -79.92108848993 0.9996835804854 -79.92108848993 0.0250176465768 21.883143146662
8.694400000000000 0.0250156924519 -1.716159267140 0.9996836030462 -79.92206979389 0.9996836030462 -79.92206979389 0.0250167261601 21.882855395109
8.694500000000000 0.0250147700541 -1.717833357070 0.9996836256502 -79.92305120196 0.9996836256502 -79.92305120196 0.0250158039682 21.882568491664
8.694600000000001 0.0250138458759 -1.719508500905 0.9996836482971 -79.92403271441 0.9996836482971 -79.92403271441 0.0250148799963 21.882282439361
8.694700000000001 0.0250129199116 -1.721184702261 0.9996836709873 -79.92501433158 0.9996836709873 -79.92501433158 0.0250139542388 21.881997240867
8.694800000000001 0.0250119921585 -1.722861962960 0.9996836937206 -79.92599605362 0.9996836937206 -79.92599605362 0.0250130266931 21.881712897709
8.694900000000001 0.0250110626088 -1.724540287642 0.9996837164974 -79.92697788100 0.9996837164974 -79.92697788100 0.0250120973514 21.881429413678
8.695000000000000 0.0250101312595 -1.726219678465 0.9996837393177 -79.92795981388 0.9996837393177 -79.92795981388 0.0250111662105 21.881146790163
8.695100000000000 0.0250091981055 -1.727900138541 0.9996837621817 -79.92894185257 0.9996837621817 -79.92894185257 0.0250102332656 21.880865029841
8.695200000000000 0.0250082631437 -1.729581669671 0.9996837850893 -79.92992399726 0.9996837850893 -79.92992399726 0.0250092985132 21.880584134736
8.695300000000001 0.0250073263654 -1.731264277235 0.9996838080408 -79.93090624845 0.9996838080408 -79.93090624845 0.0250083619451 21.880304108517
8.695400000000001 0.0250063877694 -1.732947962150 0.9996838310363 -79.93188860622 0.9996838310363 -79.93188860622 0.0250074235597 21.880024952374
8.695500000000001 0.0250054473470 -1.734632729272 0.9996838540757 -79.93287107107 0.9996838540757 -79.93287107107 0.0250064833485 21.879746670768
8.695600000000001 0.0250045050979 -1.736318579664 0.9996838771594 -79.93385364303 0.9996838771594 -79.93385364303 0.0250055413112 21.879469263354
8.695700000000000 0.0250035610137 -1.738005518412 0.9996839002876 -79.93483632259 0.9996839002876 -79.93483632259 0.0250045974393 21.879192734324
8.695800000000000 0.0250026150915 -1.739693546713 0.9996839234599 -79.93581910993 0.9996839234599 -79.93581910993 0.0250036517299 21.878917085937
8.695900000000000 0.0250016673247 -1.741382669019 0.9996839466768 -79.93680200542 0.9996839466768 -79.93680200542 0.0250027041764 21.878642321120
8.696000000000000 0.0250007177088 -1.743072888291 0.9996839699385 -79.93778500934 0.9996839699385 -79.93778500934 0.0250017547745 21.878368441875
8.696100000000001 0.0249997662396 -1.744764207039 0.9996839932449 -79.93876812193 0.9996839932449 -79.93876812193 0.0250008035197 21.878095450680
8.696200000000001 0.0249988129102 -1.746456628980 0.9996840165960 -79.93975134360 0.9996840165960 -79.93975134360 0.0249998504055 21.877823351199
8.696300000000001 0.0249978577179 -1.748150156879 0.9996840399923 -79.94073467451 0.9996840399923 -79.94073467451 0.0249988954288 21.877552144306
8.696400000000001 0.0249969006559 -1.749844793874 0.9996840634336 -79.94171811505 0.9996840634336 -79.94171811505 0.0249979385830 21.877281834073
8.696500000000000 0.0249959417217 -1.751540542881 0.9996840869202 -79.94270166539 0.9996840869202 -79.94270166539 0.0249969798654 21.877012421062
8.696600000000000 0.0249949809063 -1.753237408188 0.9996841104522 -79.94368532603 0.9996841104522 -79.94368532603 0.0249960192674 21.876743910392
8.696700000000000 0.0249940182062 -1.754935392210 0.9996841340294 -79.94466909720 0.9996841340294 -79.94466909720 0.0249950567852 21.876476303893
8.696800000000001 0.0249930536184 -1.756634497810 0.9996841576525 -79.94565297907 0.9996841576525 -79.94565297907 0.0249940924158 21.876209602500
8.696900000000001 0.0249920871350 -1.758334728867 0.9996841813212 -79.94663697210 0.9996841813212 -79.94663697210 0.0249931261514 21.875943810740
8.697000000000001 0.0249911187519 -1.760036087949 0.9996842050356 -79.94762107654 0.9996842050356 -79.94762107654 0.0249921579880 21.875678930946
8.697100000000001 0.0249901484640 -1.761738579208 0.9996842287962 -79.94860529269 0.9996842287962 -79.94860529269 0.0249911879201 21.875414964898
8.697200000000000 0.0249891762650 -1.763442205272 0.9996842526026 -79.94958962090 0.9996842526026 -79.94958962090 0.0249902159420 21.875151916576
8.697300000000000 0.0249882021514 -1.765146969180 0.9996842764552 -79.95057406141 0.9996842764552 -79.95057406141 0.0249892420497 21.874889787511
8.697400000000000 0.0249872261163 -1.766852875227 0.9996843003543 -79.95155861460 0.9996843003543 -79.95155861460 0.0249882662365 21.874628580867
8.697500000000000 0.0249862481557 -1.768559925952 0.9996843242999 -79.95254328072 0.9996843242999 -79.95254328072 0.0249872884983 21.874368298897
8.697600000000001 0.0249852682643 -1.770268123805 0.9996843482917 -79.95352806007 0.9996843482917 -79.95352806007 0.0249863088301 21.874108945012
8.697700000000001 0.0249842864353 -1.771977473983 0.9996843723304 -79.95451295307 0.9996843723304 -79.95451295307 0.0249853272247 21.873850521652
8.697800000000001 0.0249833026650 -1.773687978599 0.9996843964159 -79.95549795991 0.9996843964159 -79.95549795991 0.0249843436787 21.873593031116
8.697900000000001 0.0249823169478 -1.775399640658 0.9996844205482 -79.95648308094 0.9996844205482 -79.95648308094 0.0249833581864 21.873336476567
8.698000000000000 0.0249813292772 -1.777112465043 0.9996844447277 -79.95746831655 0.9996844447277 -79.95746831655 0.0249823707412 21.873080860668
8.698100000000000 0.0249803396476 -1.778826454542 0.9996844689544 -79.95845366705 0.9996844689544 -79.95845366705 0.0249813813377 21.872826186705
8.698200000000000 0.0249793480543 -1.780541612243 0.9996844932283 -79.95943913273 0.9996844932283 -79.95943913273 0.0249803899710 21.872572457118
8.698300000000000 0.0249783544923 -1.782257941735 0.9996845175497 -79.96042471387 0.9996845175497 -79.96042471387 0.0249793966362 21.872319674031
8.698400000000001 0.0249773589564 -1.783975445333 0.9996845419185 -79.96141041079 0.9996845419185 -79.96141041079 0.0249784013282 21.872067841123
8.698500000000001 0.0249763614418 -1.785694127035 0.9996845663350 -79.96239622377 0.9996845663350 -79.96239622377 0.0249774040421 21.871816959814
8.698600000000001 0.0249753619406 -1.787413991578 0.9996845907995 -79.96338215328 0.9996845907995 -79.96338215328 0.0249764047699 21.871567034200
8.698700000000001 0.0249743604480 -1.789135041490 0.9996846153118 -79.96436819959 0.9996846153118 -79.96436819959 0.0249754035069 21.871318067235
8.698800000000000 0.0249733569586 -1.790857280003 0.9996846398721 -79.96535436302 0.9996846398721 -79.96535436302 0.0249744002479 21.871070061716
8.698900000000000 0.0249723514682 -1.792580710746 0.9996846644807 -79.96634064383 0.9996846644807 -79.96634064383 0.0249733949884 21.870823019132
8.699000000000000 0.0249713439694 -1.794305337384 0.9996846891375 -79.96732704245 0.9996846891375 -79.96732704245 0.0249723877211 21.870576944017
8.699100000000001 0.0249703344577 -1.796031163456 0.9996847138429 -79.96831355914 0.9996847138429 -79.96831355914 0.0249713784414 21.870331838020
8.699200000000001 0.0249693229260 -1.797758192614 0.9996847385968 -79.96930019431 0.9996847385968 -79.96930019431 0.0249703671426 21.870087705272
8.699300000000001 0.0249683093702 -1.799486428052 0.9996847633994 -79.97028694823 0.9996847633994 -79.97028694823 0.0249693538201 21.869844547712
8.699400000000001 0.0249672937857 -1.801215872521 0.9996847882509 -79.97127382115 0.9996847882509 -79.97127382115 0.0249683384696 21.869602367771
8.699500000000000 0.0249662761627 -1.802946532101 0.9996848131514 -79.97226081364 0.9996848131514 -79.97226081364 0.0249673210813 21.869361169986
8.699600000000000 0.0249652564992 -1.804678407989 0.9996848381009 -79.97324792584 0.9996848381009 -79.97324792584 0.0249663016530 21.869120955974
8.699700000000000 0.0249642347873 -1.806411505256 0.9996848630998 -79.97423515820 0.9996848630998 -79.97423515820 0.0249652801769 21.868881729492
8.699800000000000 0.0249632110239 -1.808145825508 0.9996848881478 -79.97522251091 0.9996848881478 -79.97522251091 0.0249642566501 21.868643492629
8.699900000000001 0.0249621851988 -1.809881375471 0.9996849132455 -79.97620998457 0.9996849132455 -79.97620998457 0.0249632310621 21.868406249769
8.700000000000001 0.0249611573123 -1.811618155144 0.9996849383928 -79.97719757916 0.9996849383928 -79.97719757916 0.0249622034134 21.868170001396