! Sonnet Data File
! From: emgraph Version : 16.52
! From Project: 171117_Xmon_fullysym
! Data is De-embedded 
! Data File Written: 11/26/2017 21:44:46
!< HDATE 11/26/2017 17:24:49
!< MDATE 11/26/2017 17:24:49
!< PARAMS
!< Lj = 11.0
!< Gap = 1.0
!< Pwid = 2000.0
!< Airgap = 6.0
!< Width = 10.0
!< Lj1 = 9.8
!< END PARAMS
# GHZ S MA R 50.90000
8.600000000000001 0.0255568533812 -0.339644529294 0.9996701117423 -79.01493662076 0.9996701117423 -79.01493662104 0.0255577873997 22.319761708846
!< P1 F=8.6 Eeff=(6.44845572 -2.9799e-5) Z0=(50.9087207 1.17006e-4) R=0.0 C=0.0 
!< P2 F=8.6 Eeff=(6.44845572 -2.9799e-5) Z0=(50.9087207 1.17006e-4) R=0.0 C=0.0 
8.600200000000001 0.0255565234712 -0.342132002645 0.9996701200136 -79.01681096028 0.9996701200136 -79.01681096028 0.0255574576056 22.318501150124
8.600400000000000 0.0255561923764 -0.344620167614 0.9996701282897 -79.01868537047 0.9996701282897 -79.01868537047 0.0255571266063 22.317241102062
8.600600000000000 0.0255558600620 -0.347108996828 0.9996701365966 -79.02055985115 0.9996701365966 -79.02055985115 0.0255567943877 22.315981579192
8.600800000000001 0.0255555265258 -0.349598491517 0.9996701449342 -79.02243440247 0.9996701449342 -79.02243440247 0.0255564609474 22.314722582717
8.601000000000001 0.0255551917638 -0.352088654012 0.9996701533028 -79.02430902465 0.9996701533028 -79.02430902465 0.0255561262815 22.313464114297
8.601200000000000 0.0255548557731 -0.354579485850 0.9996701617024 -79.02618371786 0.9996701617024 -79.02618371786 0.0255557903872 22.312206175307
8.601400000000000 0.0255545185497 -0.357070989287 0.9996701701330 -79.02805848235 0.9996701701330 -79.02805848235 0.0255554532604 22.310948767664
8.601600000000001 0.0255541800897 -0.359563166528 0.9996701785948 -79.02993331834 0.9996701785948 -79.02993331834 0.0255551148972 22.309691892838
8.601800000000001 0.0255538403907 -0.362056019098 0.9996701870878 -79.03180822597 0.9996701870878 -79.03180822597 0.0255547752951 22.308435552118
8.602000000000000 0.0255534994476 -0.364549549596 0.9996701956122 -79.03368320553 0.9996701956122 -79.03368320553 0.0255544344493 22.307179747661
8.602200000000000 0.0255531572587 -0.367043759185 0.9996702041680 -79.03555825714 0.9996702041680 -79.03555825714 0.0255540923578 22.305924480369
8.602400000000001 0.0255528138184 -0.369538651021 0.9996702127554 -79.03743338112 0.9996702127554 -79.03743338112 0.0255537490150 22.304669752616
8.602600000000001 0.0255524691248 -0.372034226098 0.9996702213743 -79.03930857757 0.9996702213743 -79.03930857757 0.0255534044192 22.303415565350
8.602800000000000 0.0255521231734 -0.374530486980 0.9996702300250 -79.04118384677 0.9996702300250 -79.04118384677 0.0255530585659 22.302161920529
8.603000000000000 0.0255517759611 -0.377027435430 0.9996702387074 -79.04305918890 0.9996702387074 -79.04305918890 0.0255527114518 22.300908819547
8.603200000000001 0.0255514274836 -0.379525073871 0.9996702474217 -79.04493460420 0.9996702474217 -79.04493460420 0.0255523630728 22.299656264348
8.603400000000001 0.0255510777378 -0.382023403955 0.9996702561680 -79.04681009287 0.9996702561680 -79.04681009287 0.0255520134256 22.298404256500
8.603600000000000 0.0255507267200 -0.384522427891 0.9996702649463 -79.04868565511 0.9996702649463 -79.04868565511 0.0255516625067 22.297152797430
8.603800000000000 0.0255503744260 -0.387022148132 0.9996702737568 -79.05056129118 0.9996702737568 -79.05056129118 0.0255513103118 22.295901889001
8.604000000000001 0.0255500208527 -0.389522566153 0.9996702825995 -79.05243700125 0.9996702825995 -79.05243700125 0.0255509568378 22.294651532833
8.604200000000001 0.0255496659967 -0.392023684120 0.9996702914745 -79.05431278553 0.9996702914745 -79.05431278553 0.0255506020814 22.293401730262
8.604400000000000 0.0255493098529 -0.394525504853 0.9996703003820 -79.05618864432 0.9996703003820 -79.05618864432 0.0255502460373 22.292152483638
8.604600000000001 0.0255489524195 -0.397028029272 0.9996703093219 -79.05806457771 0.9996703093219 -79.05806457771 0.0255498887039 22.290903793908
8.604800000000001 0.0255485936908 -0.399531260779 0.9996703182945 -79.05994058605 0.9996703182945 -79.05994058605 0.0255495300754 22.289655663324
8.605000000000000 0.0255482336646 -0.402035200513 0.9996703272998 -79.06181666947 0.9996703272998 -79.06181666947 0.0255491701495 22.288408093131
8.605200000000000 0.0255478723361 -0.404539851079 0.9996703363379 -79.06369282825 0.9996703363379 -79.06369282825 0.0255488089217 22.287161085474
8.605400000000001 0.0255475097022 -0.407045214389 0.9996703454088 -79.06556906256 0.9996703454088 -79.06556906256 0.0255484463886 22.285914641652
8.605600000000001 0.0255471457582 -0.409551293104 0.9996703545128 -79.06744537269 0.9996703545128 -79.06744537269 0.0255480825457 22.284668763753
8.605800000000000 0.0255467805018 -0.412058088424 0.9996703636498 -79.06932175877 0.9996703636498 -79.06932175877 0.0255477173905 22.283423452998
8.606000000000000 0.0255464139271 -0.414565603714 0.9996703728200 -79.07119822114 0.9996703728200 -79.07119822114 0.0255473509173 22.282178711806
8.606200000000001 0.0255460460318 -0.417073840330 0.9996703820235 -79.07307475995 0.9996703820235 -79.07307475995 0.0255469831237 22.280934541364
8.606400000000001 0.0255456768117 -0.419582800586 0.9996703912603 -79.07495137544 0.9996703912603 -79.07495137544 0.0255466140056 22.279690943535
8.606600000000000 0.0255453062627 -0.422092486827 0.9996704005307 -79.07682806784 0.9996704005307 -79.07682806784 0.0255462435588 22.278447920066
8.606800000000000 0.0255449343808 -0.424602901231 0.9996704098345 -79.07870483740 0.9996704098345 -79.07870483740 0.0255458717793 22.277205472946
8.607000000000001 0.0255445611624 -0.427114045998 0.9996704191720 -79.08058168432 0.9996704191720 -79.08058168432 0.0255454986635 22.275963603703
8.607200000000001 0.0255441866034 -0.429625923379 0.9996704285433 -79.08245860885 0.9996704285433 -79.08245860885 0.0255451242073 22.274722314089
8.607400000000000 0.0255438107000 -0.432138535435 0.9996704379484 -79.08433561121 0.9996704379484 -79.08433561121 0.0255447484070 22.273481605950
8.607600000000000 0.0255434334481 -0.434651884553 0.9996704473874 -79.08621269163 0.9996704473874 -79.08621269163 0.0255443712585 22.272241481100
8.607800000000001 0.0255430548437 -0.437165973072 0.9996704568606 -79.08808985036 0.9996704568606 -79.08808985036 0.0255439927576 22.271001941220
8.608000000000001 0.0255426748825 -0.439680803308 0.9996704663678 -79.08996708765 0.9996704663678 -79.08996708765 0.0255436129002 22.269762988443
8.608200000000000 0.0255422935612 -0.442196377203 0.9996704759093 -79.09184440369 0.9996704759093 -79.09184440369 0.0255432316829 22.268524624132
8.608400000000001 0.0255419108753 -0.444712697181 0.9996704854852 -79.09372179874 0.9996704854852 -79.09372179874 0.0255428491012 22.267286850371
8.608600000000001 0.0255415268209 -0.447229765657 0.9996704950955 -79.09559927304 0.9996704950955 -79.09559927304 0.0255424651513 22.266049668790
8.608800000000000 0.0255411413935 -0.449747584971 0.9996705047403 -79.09747682684 0.9996705047403 -79.09747682684 0.0255420798287 22.264813081609
8.609000000000000 0.0255407545897 -0.452266157218 0.9996705144198 -79.09935446036 0.9996705144198 -79.09935446036 0.0255416931297 22.263577090284
8.609200000000001 0.0255403664051 -0.454785484836 0.9996705241341 -79.10123217384 0.9996705241341 -79.10123217384 0.0255413050503 22.262341696704
8.609400000000001 0.0255399768352 -0.457305570354 0.9996705338832 -79.10310996755 0.9996705338832 -79.10310996755 0.0255409155858 22.261106902943
8.609600000000000 0.0255395858767 -0.459826415469 0.9996705436672 -79.10498784168 0.9996705436672 -79.10498784168 0.0255405247330 22.259872710684
8.609800000000000 0.0255391935245 -0.462348023392 0.9996705534863 -79.10686579654 0.9996705534863 -79.10686579654 0.0255401324866 22.258639121969
8.610000000000001 0.0255387997752 -0.464870395784 0.9996705633405 -79.10874383232 0.9996705633405 -79.10874383232 0.0255397388435 22.257406138489
8.610200000000001 0.0255384046246 -0.467393535264 0.9996705732301 -79.11062194927 0.9996705732301 -79.11062194927 0.0255393437993 22.256173761955
8.610400000000000 0.0255380080680 -0.469917444259 0.9996705831550 -79.11250014767 0.9996705831550 -79.11250014767 0.0255389473493 22.254941994751
8.610600000000000 0.0255376101013 -0.472442125212 0.9996705931153 -79.11437842775 0.9996705931153 -79.11437842775 0.0255385494895 22.253710838486
8.610800000000001 0.0255372107203 -0.474967580487 0.9996706031113 -79.11625678977 0.9996706031113 -79.11625678977 0.0255381502156 22.252480295176
8.611000000000001 0.0255368099212 -0.477493812220 0.9996706131429 -79.11813523394 0.9996706131429 -79.11813523394 0.0255377495238 22.251250366571
8.611200000000000 0.0255364076988 -0.480020823443 0.9996706232103 -79.12001376058 0.9996706232103 -79.12001376058 0.0255373474090 22.250021054889
8.611400000000000 0.0255360040499 -0.482548615902 0.9996706333136 -79.12189236987 0.9996706333136 -79.12189236987 0.0255369438679 22.248792361691
8.611600000000001 0.0255355989698 -0.485077192164 0.9996706434529 -79.12377106207 0.9996706434529 -79.12377106207 0.0255365388959 22.247564289098
8.611800000000001 0.0255351924537 -0.487606555215 0.9996706536283 -79.12564983750 0.9996706536283 -79.12564983750 0.0255361324880 22.246336839153
8.612000000000000 0.0255347844974 -0.490136707088 0.9996706638399 -79.12752869636 0.9996706638399 -79.12752869636 0.0255357246404 22.245110013878
8.612200000000001 0.0255343750967 -0.492667650333 0.9996706740878 -79.12940763894 0.9996706740878 -79.12940763894 0.0255353153485 22.243883815166
8.612400000000001 0.0255339642473 -0.495199387552 0.9996706843722 -79.13128666547 0.9996706843722 -79.13128666547 0.0255349046081 22.242658244871
8.612600000000000 0.0255335519452 -0.497731920757 0.9996706946931 -79.13316577618 0.9996706946931 -79.13316577618 0.0255344924154 22.241433304868
8.612800000000000 0.0255331381850 -0.500265253093 0.9996707050506 -79.13504497139 0.9996707050506 -79.13504497139 0.0255340787648 22.240208997566
8.613000000000001 0.0255327229636 -0.502799386439 0.9996707154449 -79.13692425131 0.9996707154449 -79.13692425130 0.0255336636531 22.238985324441
8.613200000000001 0.0255323062750 -0.505334324066 0.9996707258761 -79.13880361625 0.9996707258761 -79.13880361625 0.0255332470746 22.237762288055
8.613400000000000 0.0255318881154 -0.507870068153 0.9996707363443 -79.14068306646 0.9996707363443 -79.14068306646 0.0255328290254 22.236539890175
8.613600000000000 0.0255314684809 -0.510406620875 0.9996707468495 -79.14256260216 0.9996707468495 -79.14256260216 0.0255324095015 22.235318132739
8.613800000000001 0.0255310473663 -0.512943985265 0.9996707573919 -79.14444222366 0.9996707573919 -79.14444222366 0.0255319884977 22.234097017943
8.614000000000001 0.0255306247675 -0.515482163629 0.9996707679716 -79.14632193119 0.9996707679716 -79.14632193119 0.0255315660100 22.232876547608
8.614200000000000 0.0255302006795 -0.518021158833 0.9996707785888 -79.14820172506 0.9996707785888 -79.14820172506 0.0255311420333 22.231656724007
8.614400000000000 0.0255297750976 -0.520560973383 0.9996707892435 -79.15008160553 0.9996707892435 -79.15008160553 0.0255307165631 22.230437549420
8.614600000000001 0.0255293480175 -0.523101609889 0.9996707999359 -79.15196157286 0.9996707999359 -79.15196157286 0.0255302895949 22.229219025555
8.614800000000001 0.0255289194353 -0.525643070621 0.9996708106660 -79.15384162729 0.9996708106660 -79.15384162729 0.0255298611248 22.228001154354
8.615000000000000 0.0255284893450 -0.528185358745 0.9996708214340 -79.15572176915 0.9996708214340 -79.15572176915 0.0255294311469 22.226783938455
8.615200000000000 0.0255280577436 -0.530728476151 0.9996708322400 -79.15760199863 0.9996708322400 -79.15760199863 0.0255289996582 22.225567379292
8.615400000000001 0.0255276246249 -0.533272426400 0.9996708430841 -79.15948231610 0.9996708430841 -79.15948231610 0.0255285666523 22.224351479581
8.615600000000001 0.0255271899847 -0.535817211705 0.9996708539665 -79.16136272179 0.9996708539665 -79.16136272179 0.0255281321253 22.223136241219
8.615800000000000 0.0255267538187 -0.538362834577 0.9996708648871 -79.16324321596 0.9996708648871 -79.16324321596 0.0255276960728 22.221921666266
8.616000000000000 0.0255263161218 -0.540909297905 0.9996708758462 -79.16512379891 0.9996708758462 -79.16512379891 0.0255272584896 22.220707756951
8.616200000000001 0.0255258768891 -0.543456604512 0.9996708868440 -79.16700447093 0.9996708868440 -79.16700447093 0.0255268193709 22.219494515439
8.616400000000001 0.0255254361171 -0.546004756436 0.9996708978803 -79.16888523222 0.9996708978803 -79.16888523222 0.0255263787132 22.218281943404
8.616600000000000 0.0255249937986 -0.548553757541 0.9996709089555 -79.17076608321 0.9996709089555 -79.17076608321 0.0255259365092 22.217070044104
8.616800000000001 0.0255245499312 -0.551103609404 0.9996709200696 -79.17264702404 0.9996709200696 -79.17264702404 0.0255254927567 22.215858818624
8.617000000000001 0.0255241045088 -0.553654315518 0.9996709312228 -79.17452805506 0.9996709312228 -79.17452805506 0.0255250474493 22.214648269664
8.617200000000000 0.0255236575269 -0.556205878400 0.9996709424152 -79.17640917654 0.9996709424152 -79.17640917654 0.0255246005828 22.213438399216
8.617400000000000 0.0255232089806 -0.558758300814 0.9996709536468 -79.17829038877 0.9996709536468 -79.17829038877 0.0255241521521 22.212229209644
8.617600000000001 0.0255227588650 -0.561311585313 0.9996709649178 -79.18017169203 0.9996709649178 -79.18017169203 0.0255237021524 22.211020703232
8.617800000000001 0.0255223071749 -0.563865735207 0.9996709762284 -79.18205308664 0.9996709762284 -79.18205308664 0.0255232505785 22.209812882107
8.618000000000000 0.0255218539056 -0.566420753113 0.9996709875787 -79.18393457286 0.9996709875787 -79.18393457286 0.0255227974256 22.208605748463
8.618200000000000 0.0255213990528 -0.568976641232 0.9996709989686 -79.18581615095 0.9996709989686 -79.18581615095 0.0255223426895 22.207399304476
8.618400000000001 0.0255209426106 -0.571533403072 0.9996710103984 -79.18769782125 0.9996710103984 -79.18769782125 0.0255218863644 22.206193552621
8.618600000000001 0.0255204845737 -0.574091041790 0.9996710218684 -79.18957958408 0.9996710218684 -79.18957958408 0.0255214284448 22.204988495150
8.618800000000000 0.0255200249385 -0.576649559257 0.9996710333784 -79.19146143966 0.9996710333784 -79.19146143966 0.0255209689271 22.203784133997
8.619000000000000 0.0255195636987 -0.579208959028 0.9996710449287 -79.19334338833 0.9996710449287 -79.19334338833 0.0255205078052 22.202580471890
8.619200000000001 0.0255191008499 -0.581769243775 0.9996710565194 -79.19522543038 0.9996710565194 -79.19522543038 0.0255200450746 22.201377510771
8.619400000000001 0.0255186363874 -0.584330416070 0.9996710681506 -79.19710756607 0.9996710681506 -79.19710756607 0.0255195807304 22.200175252928
8.619600000000000 0.0255181703053 -0.586892479192 0.9996710798224 -79.19898979574 0.9996710798224 -79.19898979574 0.0255191147671 22.198973700913
8.619800000000000 0.0255177025982 -0.589455436440 0.9996710915351 -79.20087211973 0.9996710915351 -79.20087211973 0.0255186471790 22.197772857141
8.620000000000001 0.0255172332610 -0.592019290452 0.9996711032886 -79.20275453831 0.9996711032886 -79.20275453831 0.0255181779611 22.196572723999
8.620200000000001 0.0255167622897 -0.594584043811 0.9996711150832 -79.20463705174 0.9996711150832 -79.20463705174 0.0255177071093 22.195373303262
8.620400000000000 0.0255162896787 -0.597149699367 0.9996711269189 -79.20651966034 0.9996711269189 -79.20651966034 0.0255172346182 22.194174597625
8.620600000000001 0.0255158154217 -0.599716260899 0.9996711387959 -79.20840236448 0.9996711387959 -79.20840236448 0.0255167604814 22.192976609736
8.620800000000001 0.0255153395148 -0.602283730562 0.9996711507142 -79.21028516438 0.9996711507142 -79.21028516438 0.0255162846949 22.191779341545
8.621000000000000 0.0255148619519 -0.604852111891 0.9996711626741 -79.21216806042 0.9996711626741 -79.21216806042 0.0255158072527 22.190582795765
8.621200000000000 0.0255143827284 -0.607421407544 0.9996711746757 -79.21405105284 0.9996711746757 -79.21405105284 0.0255153281503 22.189386974317
8.621400000000001 0.0255139018384 -0.609991620691 0.9996711867191 -79.21593414202 0.9996711867191 -79.21593414202 0.0255148473816 22.188191880202
8.621600000000001 0.0255134192764 -0.612562754700 0.9996711988044 -79.21781732825 0.9996711988044 -79.21781732825 0.0255143649413 22.186997515574
8.621800000000000 0.0255129350372 -0.615134812386 0.9996712109318 -79.21970061187 0.9996712109318 -79.21970061187 0.0255138808240 22.185803883068
8.622000000000000 0.0255124491165 -0.617707796250 0.9996712231014 -79.22158399310 0.9996712231014 -79.22158399310 0.0255133950255 22.184610984508
8.622200000000001 0.0255119615074 -0.620281710183 0.9996712353133 -79.22346747237 0.9996712353133 -79.22346747237 0.0255129075389 22.183418823109
8.622400000000001 0.0255114722055 -0.622856556698 0.9996712475676 -79.22535104992 0.9996712475676 -79.22535104992 0.0255124183599 22.182227400823
8.622600000000000 0.0255109812045 -0.625432339531 0.9996712598646 -79.22723472613 0.9996712598646 -79.22723472613 0.0255119274820 22.181036720392
8.622800000000000 0.0255104884997 -0.628009061111 0.9996712722043 -79.22911850127 0.9996712722043 -79.22911850127 0.0255114349007 22.179846784273
8.623000000000001 0.0255099940848 -0.630586725267 0.9996712845869 -79.23100237572 0.9996712845869 -79.23100237572 0.0255109406095 22.178657594927
8.623200000000001 0.0255094979554 -0.633165334227 0.9996712970124 -79.23288634973 0.9996712970124 -79.23288634973 0.0255104446042 22.177469154812
8.623400000000000 0.0255090001048 -0.635744892143 0.9996713094811 -79.23477042369 0.9996713094811 -79.23477042369 0.0255099468779 22.176281466592
8.623600000000000 0.0255085005285 -0.638325401380 0.9996713219930 -79.23665459788 0.9996713219930 -79.23665459788 0.0255094474264 22.175094532449
8.623800000000001 0.0255079992197 -0.640906865942 0.9996713345485 -79.23853887269 0.9996713345485 -79.23853887269 0.0255089462425 22.173908355465
8.624000000000001 0.0255074961737 -0.643489288332 0.9996713471474 -79.24042324838 0.9996713471474 -79.24042324838 0.0255084433219 22.172722937782
8.624200000000000 0.0255069913847 -0.646072671919 0.9996713597900 -79.24230772532 0.9996713597900 -79.24230772532 0.0255079386584 22.171538282237
8.624400000000001 0.0255064848466 -0.648657020208 0.9996713724764 -79.24419230385 0.9996713724764 -79.24419230385 0.0255074322463 22.170354391304
8.624600000000001 0.0255059765536 -0.651242336663 0.9996713852069 -79.24607698432 0.9996713852069 -79.24607698432 0.0255069240795 22.169171267708
8.624800000000000 0.0255054665014 -0.653828623552 0.9996713979814 -79.24796176696 0.9996713979814 -79.24796176696 0.0255064141539 22.167988913444
8.625000000000000 0.0255049546823 -0.656415885291 0.9996714108002 -79.24984665226 0.9996714108002 -79.24984665226 0.0255059024616 22.166807332129
8.625200000000001 0.0255044410924 -0.659004124222 0.9996714236634 -79.25173164042 0.9996714236634 -79.25173164042 0.0255053889990 22.165626525302
8.625400000000001 0.0255039257248 -0.661593343982 0.9996714365711 -79.25361673185 0.9996714365711 -79.25361673185 0.0255048737589 22.164446496415
8.625600000000000 0.0255034085733 -0.664183548473 0.9996714495235 -79.25550192693 0.9996714495235 -79.25550192693 0.0255043567353 22.163267247986
8.625800000000000 0.0255028896328 -0.666774740468 0.9996714625208 -79.25738722594 0.9996714625208 -79.25738722594 0.0255038379229 22.162088782541
8.626000000000001 0.0255023688970 -0.669366923523 0.9996714755630 -79.25927262926 0.9996714755630 -79.25927262926 0.0255033173156 22.160911102795
8.626200000000001 0.0255018463606 -0.671960100628 0.9996714886503 -79.26115813720 0.9996714886503 -79.26115813720 0.0255027949080 22.159734211449
8.626400000000000 0.0255013220172 -0.674554275485 0.9996715017828 -79.26304375013 0.9996715017828 -79.26304375013 0.0255022706938 22.158558111161
8.626600000000000 0.0255007958606 -0.677149451747 0.9996715149608 -79.26492946842 0.9996715149608 -79.26492946842 0.0255017446667 22.157382804702
8.626800000000001 0.0255002678849 -0.679745632675 0.9996715281844 -79.26681529242 0.9996715281844 -79.26681529242 0.0255012168208 22.156208294932
8.627000000000001 0.0254997380852 -0.682342821148 0.9996715414536 -79.26870122241 0.9996715414536 -79.26870122241 0.0255006871512 22.155034584081
8.627200000000000 0.0254992064538 -0.684941021411 0.9996715547687 -79.27058725884 0.9996715547687 -79.27058725884 0.0255001556502 22.153861675670
8.627400000000000 0.0254986729859 -0.687540236433 0.9996715681298 -79.27247340201 0.9996715681298 -79.27247340201 0.0254996223131 22.152689571719
8.627600000000001 0.0254981376748 -0.690140469842 0.9996715815370 -79.27435965229 0.9996715815370 -79.27435965229 0.0254990871332 22.151518275485
8.627800000000001 0.0254976005137 -0.692741725487 0.9996715949905 -79.27624601010 0.9996715949905 -79.27624601010 0.0254985501036 22.150347790044
8.628000000000000 0.0254970614985 -0.695344005966 0.9996716084905 -79.27813247566 0.9996716084905 -79.27813247566 0.0254980112202 22.149178117101
8.628200000000001 0.0254965206209 -0.697947315743 0.9996716220371 -79.28001904947 0.9996716220371 -79.28001904947 0.0254974704748 22.148009260711
8.628400000000001 0.0254959778760 -0.700551657884 0.9996716356304 -79.28190573182 0.9996716356304 -79.28190573182 0.0254969278624 22.146841222922
8.628600000000000 0.0254954332568 -0.703157036192 0.9996716492707 -79.28379252312 0.9996716492707 -79.28379252312 0.0254963833760 22.145674007006
8.628800000000000 0.0254948867572 -0.705763454278 0.9996716629580 -79.28567942372 0.9996716629580 -79.28567942372 0.0254958370097 22.144507615587
8.629000000000001 0.0254943383714 -0.708370915396 0.9996716766925 -79.28756643398 0.9996716766925 -79.28756643398 0.0254952887573 22.143342051602
8.629200000000001 0.0254937880930 -0.710979423275 0.9996716904744 -79.28945355425 0.9996716904744 -79.28945355425 0.0254947386128 22.142177317757
8.629400000000000 0.0254932359150 -0.713588981780 0.9996717043039 -79.29134078495 0.9996717043039 -79.29134078495 0.0254941865691 22.141013417331
8.629600000000000 0.0254926818315 -0.716199594404 0.9996717181809 -79.29322812644 0.9996717181809 -79.29322812644 0.0254936326202 22.139850353050
8.629800000000001 0.0254921258355 -0.718811265196 0.9996717321059 -79.29511557912 0.9996717321059 -79.29511557912 0.0254930767591 22.138688127943
8.630000000000001 0.0254915679217 -0.721423997043 0.9996717460789 -79.29700314330 0.9996717460789 -79.29700314330 0.0254925189806 22.137526744709
8.630200000000000 0.0254910080832 -0.724037794127 0.9996717601000 -79.29889081939 0.9996717601000 -79.29889081939 0.0254919592777 22.136366206263
8.630400000000000 0.0254904463131 -0.726652659956 0.9996717741694 -79.30077860778 0.9996717741694 -79.30077860778 0.0254913976436 22.135206516029
8.630600000000001 0.0254898826049 -0.729268598699 0.9996717882873 -79.30266650888 0.9996717882873 -79.30266650888 0.0254908340718 22.134047676728
8.630800000000001 0.0254893169519 -0.731885614132 0.9996718024539 -79.30455452306 0.9996718024539 -79.30455452306 0.0254902685555 22.132889691305
8.631000000000000 0.0254887493481 -0.734503709495 0.9996718166692 -79.30644265069 0.9996718166692 -79.30644265069 0.0254897010888 22.131732562898
8.631200000000000 0.0254881797870 -0.737122888698 0.9996718309335 -79.30833089214 0.9996718309335 -79.30833089214 0.0254891316650 22.130576294267
8.631400000000001 0.0254876082608 -0.739743155965 0.9996718452470 -79.31021924787 0.9996718452470 -79.31021924787 0.0254885602767 22.129420889025
8.631600000000001 0.0254870347640 -0.742364514710 0.9996718596097 -79.31210771819 0.9996718596097 -79.31210771819 0.0254879869181 22.128266349588
8.631800000000000 0.0254864592895 -0.744986968847 0.9996718740219 -79.31399630355 0.9996718740219 -79.31399630355 0.0254874115821 22.127112679405
8.632000000000000 0.0254858818305 -0.747610522397 0.9996718884837 -79.31588500432 0.9996718884837 -79.31588500432 0.0254868342620 22.125959881380
8.632200000000001 0.0254853023804 -0.750235179018 0.9996719029953 -79.31777382090 0.9996719029953 -79.31777382090 0.0254862549512 22.124807958683
8.632400000000001 0.0254847209318 -0.752860943048 0.9996719175569 -79.31966275373 0.9996719175569 -79.31966275373 0.0254856736422 22.123656914623
8.632600000000000 0.0254841374790 -0.755487817652 0.9996719321685 -79.32155180312 0.9996719321685 -79.32155180312 0.0254850903294 22.122506751894
8.632800000000001 0.0254835520134 -0.758115807793 0.9996719468305 -79.32344096961 0.9996719468305 -79.32344096961 0.0254845050042 22.121357474362
8.633000000000001 0.0254829645297 -0.760744916471 0.9996719615429 -79.32533025348 0.9996719615429 -79.32533025348 0.0254839176613 22.120209084522
8.633200000000000 0.0254823750208 -0.763375148059 0.9996719763060 -79.32721965517 0.9996719763060 -79.32721965517 0.0254833282936 22.119061585472
8.633400000000000 0.0254817834784 -0.766006506944 0.9996719911198 -79.32910917516 0.9996719911198 -79.32910917516 0.0254827368926 22.117914981229
8.633600000000001 0.0254811898970 -0.768638996443 0.9996720059847 -79.33099881376 0.9996720059847 -79.33099881376 0.0254821434532 22.116769274122
8.633800000000001 0.0254805942690 -0.771272620778 0.9996720209006 -79.33288857144 0.9996720209006 -79.33288857144 0.0254815479675 22.115624467925
8.634000000000000 0.0254799965878 -0.773907384031 0.9996720358679 -79.33477844857 0.9996720358679 -79.33477844857 0.0254809504289 22.114480565328
8.634200000000000 0.0254793968438 -0.776543291272 0.9996720508866 -79.33666844572 0.9996720508866 -79.33666844572 0.0254803508280 22.113337570890
8.634400000000001 0.0254787950338 -0.779180344912 0.9996720659571 -79.33855856308 0.9996720659571 -79.33855856308 0.0254797491614 22.112195486042
8.634600000000001 0.0254781911483 -0.781818549827 0.9996720810794 -79.34044880120 0.9996720810794 -79.34044880120 0.0254791454198 22.111054315278
8.634800000000000 0.0254775851798 -0.784457910591 0.9996720962537 -79.34233916052 0.9996720962537 -79.34233916052 0.0254785395956 22.109914061861
8.635000000000000 0.0254769771234 -0.787098430134 0.9996721114801 -79.34422964135 0.9996721114801 -79.34422964135 0.0254779316838 22.108774728198
8.635200000000001 0.0254763669686 -0.789740114394 0.9996721267590 -79.34612024428 0.9996721267590 -79.34612024428 0.0254773216740 22.107636318887
8.635400000000001 0.0254757547102 -0.792382966105 0.9996721420904 -79.34801096963 0.9996721420904 -79.34801096963 0.0254767095611 22.106498836595
8.635600000000000 0.0254751403405 -0.795026990241 0.9996721574746 -79.34990181785 0.9996721574746 -79.34990181785 0.0254760953371 22.105362284523
8.635800000000000 0.0254745238519 -0.797672190537 0.9996721729117 -79.35179278938 0.9996721729117 -79.35179278938 0.0254754789948 22.104226666536
8.636000000000001 0.0254739052369 -0.800318571653 0.9996721884018 -79.35368388466 0.9996721884018 -79.35368388466 0.0254748605264 22.103091985863
8.636200000000001 0.0254732844888 -0.802966137439 0.9996722039453 -79.35557510410 0.9996722039453 -79.35557510410 0.0254742399253 22.101958245627
8.636400000000000 0.0254726615988 -0.805614892906 0.9996722195422 -79.35746644820 0.9996722195422 -79.35746644820 0.0254736171827 22.100825449833
8.636600000000001 0.0254720365605 -0.808264841745 0.9996722351927 -79.35935791735 0.9996722351927 -79.35935791735 0.0254729922923 22.099693601452
8.636800000000001 0.0254714093663 -0.810915988234 0.9996722508971 -79.36124951198 0.9996722508971 -79.36124951198 0.0254723652463 22.098562704048
8.637000000000000 0.0254707800076 -0.813568337334 0.9996722666555 -79.36314123260 0.9996722666555 -79.36314123260 0.0254717360363 22.097432761487
8.637200000000000 0.0254701484777 -0.816221893112 0.9996722824681 -79.36503307961 0.9996722824681 -79.36503307961 0.0254711046554 22.096303776782
8.637400000000001 0.0254695147685 -0.818876659951 0.9996722983351 -79.36692505349 0.9996722983351 -79.36692505349 0.0254704710957 22.095175753791
8.637600000000001 0.0254688788729 -0.821532642075 0.9996723142566 -79.36881715464 0.9996723142566 -79.36881715464 0.0254698353501 22.094048695734
8.637800000000000 0.0254682407823 -0.824189844402 0.9996723302330 -79.37070938358 0.9996723302330 -79.37070938358 0.0254691974098 22.092922606585
8.638000000000000 0.0254676004896 -0.826848270867 0.9996723462642 -79.37260174072 0.9996723462642 -79.37260174072 0.0254685572678 22.091797489733
8.638200000000001 0.0254669579871 -0.829507926193 0.9996723623506 -79.37449422651 0.9996723623506 -79.37449422651 0.0254679149165 22.090673348464
8.638400000000001 0.0254663132663 -0.832168815097 0.9996723784924 -79.37638684146 0.9996723784924 -79.37638684146 0.0254672703473 22.089550186805
8.638600000000000 0.0254656663191 -0.834830942266 0.9996723946897 -79.37827958604 0.9996723946897 -79.37827958604 0.0254666235522 22.088428008467
8.638800000000000 0.0254650171392 -0.837494311377 0.9996724109427 -79.38017246062 0.9996724109427 -79.38017246062 0.0254659745247 22.087306816461
8.639000000000001 0.0254643657166 -0.840158927975 0.9996724272516 -79.38206546578 0.9996724272516 -79.38206546578 0.0254653232550 22.086186615328
8.639200000000001 0.0254637120450 -0.842824795996 0.9996724436167 -79.38395860190 0.9996724436167 -79.38395860190 0.0254646697367 22.085067407908
8.639400000000000 0.0254630561151 -0.845491920601 0.9996724600381 -79.38585186953 0.9996724600381 -79.38585186953 0.0254640139605 22.083949198555
8.639600000000000 0.0254623979190 -0.848160306442 0.9996724765160 -79.38774526912 0.9996724765160 -79.38774526912 0.0254633559186 22.082831990764
8.639800000000001 0.0254617374493 -0.850829957693 0.9996724930506 -79.38963880112 0.9996724930506 -79.38963880112 0.0254626956035 22.081715788200
8.640000000000001 0.0254610746975 -0.853500879292 0.9996725096421 -79.39153246602 0.9996725096421 -79.39153246602 0.0254620330067 22.080600594627
8.640200000000000 0.0254604096547 -0.856173076210 0.9996725262907 -79.39342626434 0.9996725262907 -79.39342626434 0.0254613681194 22.079486414219