! Sonnet Data File
! From: emgraph Version : 16.52
! From Project: 171117_Xmon_fullysym
! Data is De-embedded 
! Data File Written: 11/26/2017 17:14:24
!< HDATE 11/22/2017 16:48:52
!< MDATE 11/23/2017 10:16:42
!< PARAMS
!< Lj = 11.0
!< Gap = 1.0
!< Pwid = 2000.0
!< Airgap = 6.0
!< Width = 10.0
!< Lj1 = 9.2
!< END PARAMS
# GHZ S MA R 50.90000
8.750000000000000 0.0240737104301 -2.932167515495 0.9997060743011 -80.49304256574 0.9997060743028 -80.49304256559 0.0240750929805 21.960359870420
!< P1 F=8.75 Eeff=(6.44841643 -2.9796e-5) Z0=(50.9085185 1.17018e-4) R=0.0 C=0.0 
!< P2 F=8.75 Eeff=(6.44841643 -2.9796e-5) Z0=(50.9085185 1.17018e-4) R=0.0 C=0.0 
8.750100000000000 0.0240693651393 -2.935977178907 0.9997061754457 -80.49422535052 0.9997061754457 -80.49422535052 0.0240707494573 21.961821633412
8.750200000000001 0.0240650028001 -2.939798168055 0.9997062769633 -80.49540914066 0.9997062769633 -80.49540914066 0.0240663888942 21.963292797411
8.750300000000001 0.0240606233120 -2.943630545148 0.9997063788560 -80.49659394195 0.9997063788560 -80.49659394195 0.0240620111923 21.964773430019
8.750400000000001 0.0240562265694 -2.947474384341 0.9997064811255 -80.49777976062 0.9997064811255 -80.49777976062 0.0240576162465 21.966263596679
8.750500000000001 0.0240518124604 -2.951329764681 0.9997065837739 -80.49896660329 0.9997065837739 -80.49896660329 0.0240532039448 21.967763365147
8.750600000000000 0.0240473809041 -2.955196747909 0.9997066868029 -80.50015447473 0.9997066868029 -80.50015447473 0.0240487742066 21.969272786808
8.750700000000000 0.0240429317957 -2.959075410040 0.9997067902150 -80.50134338117 0.9997067902150 -80.50134338117 0.0240443269268 21.970791925511
8.750800000000000 0.0240384650261 -2.962965830331 0.9997068940128 -80.50253332904 0.9997068940128 -80.50253332904 0.0240398619964 21.972320846632
8.750900000000000 0.0240339805016 -2.966868075721 0.9997069981971 -80.50372432389 0.9997069981971 -80.50372432389 0.0240353793222 21.973859611100
8.751000000000001 0.0240294781052 -2.970782230094 0.9997071027706 -80.50491637264 0.9997071027706 -80.50491637264 0.0240308787872 21.975408289109
8.751100000000001 0.0240249577583 -2.974708354791 0.9997072077352 -80.50610947994 0.9997072077352 -80.50610947994 0.0240263603125 21.976966931435
8.751200000000001 0.0240204193358 -2.978646536921 0.9997073130928 -80.50730365318 0.9997073130928 -80.50730365318 0.0240218237736 21.978535614345
8.751300000000001 0.0240158627331 -2.982596856231 0.9997074188470 -80.50849889858 0.9997074188470 -80.50849889858 0.0240172690652 21.980114399868
8.751400000000000 0.0240112878635 -2.986559375265 0.9997075249982 -80.50969522124 0.9997075249982 -80.50969522124 0.0240126961015 21.981703346755
8.751500000000000 0.0240066945966 -2.990534186888 0.9997076315492 -80.51089262888 0.9997076315492 -80.51089262888 0.0240081047519 21.983302532603
8.751600000000000 0.0240020828329 -2.994521363728 0.9997077385016 -80.51209112738 0.9997077385016 -80.51209112738 0.0240034949172 21.984912021438
8.751700000000001 0.0239974524632 -2.998520989639 0.9997078458593 -80.51329072322 0.9997078458593 -80.51329072322 0.0239988664877 21.986531877321
8.751800000000001 0.0239928033872 -3.002533135263 0.9997079536225 -80.51449142232 0.9997079536225 -80.51449142232 0.0239942193638 21.988162167409
8.751900000000001 0.0239881354744 -3.006557894927 0.9997080617945 -80.51569323241 0.9997080617945 -80.51569323241 0.0239895534148 21.989802969429
8.752000000000001 0.0239834486281 -3.010595341831 0.9997081703774 -80.51689615919 0.9997081703774 -80.51689615919 0.0239848685442 21.991454344858
8.752100000000000 0.0239787427431 -3.014645553078 0.9997082793729 -80.51810020892 0.9997082793729 -80.51810020892 0.0239801646469 21.993116361254
8.752200000000000 0.0239740176929 -3.018708620850 0.9997083887840 -80.51930538906 0.9997083887840 -80.51930538906 0.0239754415964 21.994789094963
8.752300000000000 0.0239692733695 -3.022784624976 0.9997084986127 -80.52051170601 0.9997084986127 -80.52051170601 0.0239706992847 21.996472614557
8.752400000000000 0.0239645096465 -3.026873655600 0.9997086088611 -80.52171916724 0.9997086088611 -80.52171916724 0.0239659375861 21.998166998678
8.752500000000001 0.0239597264300 -3.030975787243 0.9997087195320 -80.52292777832 0.9997087195320 -80.52292777832 0.0239611564059 21.999872306751
8.752600000000001 0.0239549235859 -3.035091112976 0.9997088306267 -80.52413754717 0.9997088306267 -80.52413754717 0.0239563556110 22.001588623608
8.752700000000001 0.0239501010004 -3.039219721235 0.9997089421492 -80.52534848055 0.9997089421492 -80.52534848055 0.0239515350870 22.003316017445
8.752800000000001 0.0239452585566 -3.043361695320 0.9997090541005 -80.52656058535 0.9997090541005 -80.52656058535 0.0239466947174 22.005054564855
8.752900000000000 0.0239403961345 -3.047517125262 0.9997091664837 -80.52777386869 0.9997091664837 -80.52777386869 0.0239418343822 22.006804339770
8.753000000000000 0.0239355136150 -3.051686097111 0.9997092793002 -80.52898833760 0.9997092793002 -80.52898833760 0.0239369539628 22.008565419146
8.753100000000000 0.0239306108755 -3.055868703722 0.9997093925536 -80.53020399935 0.9997093925536 -80.53020399935 0.0239320533363 22.010337877909
8.753200000000001 0.0239256878037 -3.060065029007 0.9997095062456 -80.53142086060 0.9997095062456 -80.53142086060 0.0239271323904 22.012121788763
8.753300000000001 0.0239207442536 -3.064275178981 0.9997096203798 -80.53263892997 0.9997096203798 -80.53263892997 0.0239221909793 22.013917240068
8.753400000000001 0.0239157801110 -3.068499236569 0.9997097349571 -80.53385821422 0.9997097349571 -80.53385821422 0.0239172289894 22.015724307860
8.753500000000001 0.0239107952594 -3.072737291558 0.9997098499807 -80.53507872025 0.9997098499807 -80.53507872025 0.0239122463038 22.017543065183
8.753600000000000 0.0239057895660 -3.076989442350 0.9997099654536 -80.53630045594 0.9997099654536 -80.53630045594 0.0239072427898 22.019373594519
8.753700000000000 0.0239007628976 -3.081255785451 0.9997100813776 -80.53752342914 0.9997100813776 -80.53752342914 0.0239022183146 22.021215981003
8.753800000000000 0.0238957151372 -3.085536409447 0.9997101977552 -80.53874764680 0.9997101977552 -80.53874764680 0.0238971727612 22.023070300342
8.753900000000000 0.0238906461464 -3.089831418484 0.9997103145900 -80.53997311712 0.9997103145900 -80.53997311712 0.0238921059911 22.024936637082
8.754000000000001 0.0238855558021 -3.094140901488 0.9997104318830 -80.54119984735 0.9997104318830 -80.54119984735 0.0238870178818 22.026815073699
8.754100000000001 0.0238804439686 -3.098464962322 0.9997105496381 -80.54242784557 0.9997105496381 -80.54242784557 0.0238819082972 22.028705693124
8.754200000000001 0.0238753105145 -3.102803696848 0.9997106678571 -80.54365711953 0.9997106678571 -80.54365711953 0.0238767771064 22.030608581239
8.754300000000001 0.0238701552799 -3.107157221788 0.9997107865435 -80.54488767869 0.9997107865435 -80.54488767869 0.0238716241496 22.032523835721
8.754400000000000 0.0238649781810 -3.111525606869 0.9997109056989 -80.54611952803 0.9997109056989 -80.54611952803 0.0238664493429 22.034451516582
8.754500000000000 0.0238597790383 -3.115908981418 0.9997110253274 -80.54735267818 0.9997110253274 -80.54735267818 0.0238612525069 22.036391731893
8.754600000000000 0.0238545577322 -3.120307435101 0.9997111454303 -80.54858713621 0.9997111454303 -80.54858713621 0.0238560335224 22.038344562378
8.754700000000000 0.0238493141329 -3.124721067512 0.9997112660108 -80.54982290982 0.9997112660108 -80.54982290982 0.0238507922596 22.040310091103
8.754800000000001 0.0238440480799 -3.129149996674 0.9997113870723 -80.55106000850 0.9997113870723 -80.55106000850 0.0238455285580 22.042288417581
8.754900000000001 0.0238387594489 -3.133594317291 0.9997115086168 -80.55229843961 0.9997115086168 -80.55229843961 0.0238402422936 22.044279624355
8.755000000000001 0.0238334480898 -3.138054140386 0.9997116306471 -80.55353821204 0.9997116306471 -80.55353821204 0.0238349333165 22.046283807158
8.755100000000001 0.0238281138692 -3.142529568125 0.9997117531660 -80.55477933370 0.9997117531660 -80.55477933370 0.0238296014932 22.048301052639
8.755200000000000 0.0238227566297 -3.147020716790 0.9997118761766 -80.55602181389 0.9997118761766 -80.55602181389 0.0238242466668 22.050331460249
8.755300000000000 0.0238173762321 -3.151527694572 0.9997119996826 -80.55726566089 0.9997119996826 -80.55726566089 0.0238188686975 22.052375118340
8.755400000000000 0.0238119725244 -3.156050612041 0.9997121236856 -80.55851088367 0.9997121236856 -80.55851088367 0.0238134674341 22.054432127010
8.755500000000001 0.0238065453724 -3.160589573120 0.9997122481887 -80.55975749018 0.9997122481887 -80.55975749018 0.0238080427425 22.056502573866
8.755600000000001 0.0238010946157 -3.165144697872 0.9997123731951 -80.56100548994 0.9997123731951 -80.56100548994 0.0238025944621 22.058586560693
8.755700000000001 0.0237956201056 -3.169716096609 0.9997124987069 -80.56225489173 0.9997124987069 -80.56225489173 0.0237971224450 22.060684185703
8.755800000000001 0.0237901216897 -3.174303888828 0.9997126247289 -80.56350570460 0.9997126247289 -80.56350570460 0.0237916265380 22.062795543576
8.755900000000000 0.0237845992136 -3.178908188348 0.9997127512628 -80.56475793769 0.9997127512628 -80.56475793769 0.0237861065875 22.064920736727
8.756000000000000 0.0237790525300 -3.183529107573 0.9997128783116 -80.56601159972 0.9997128783116 -80.56601159972 0.0237805624462 22.067059861876
8.756100000000000 0.0237734814810 -3.188166766975 0.9997130058787 -80.56726670005 0.9997130058787 -80.56726670005 0.0237749939562 22.069213020119
8.756200000000000 0.0237678859009 -3.192821289720 0.9997131339668 -80.56852324848 0.9997131339668 -80.56852324848 0.0237694009523 22.071380319179
8.756300000000001 0.0237622656378 -3.197492793112 0.9997132625793 -80.56978125403 0.9997132625793 -80.56978125403 0.0237637832826 22.073561857914
8.756400000000001 0.0237566205386 -3.202181393925 0.9997133917189 -80.57104072576 0.9997133917189 -80.57104072576 0.0237581407940 22.075757737545
8.756500000000001 0.0237509504230 -3.206887227877 0.9997135213898 -80.57230167435 0.9997135213898 -80.57230167435 0.0237524733063 22.077968071732
8.756600000000001 0.0237452551526 -3.211610401431 0.9997136515935 -80.57356410800 0.9997136515935 -80.57356410800 0.0237467806817 22.080192956298
8.756700000000000 0.0237395345465 -3.216351053569 0.9997137823350 -80.57482803744 0.9997137823350 -80.57482803744 0.0237410627388 22.082432504083
8.756800000000000 0.0237337884412 -3.221109305518 0.9997139136160 -80.57609347233 0.9997139136160 -80.57609347233 0.0237353193149 22.084686825575
8.756900000000000 0.0237280166782 -3.225885281812 0.9997140454405 -80.57736042209 0.9997140454405 -80.57736042209 0.0237295502513 22.086956023751
8.757000000000000 0.0237222190810 -3.230679116024 0.9997141778118 -80.57862889717 0.9997141778118 -80.57862889717 0.0237237553717 22.089240213286
8.757100000000001 0.0237163954795 -3.235490936495 0.9997143107326 -80.57989890763 0.9997143107326 -80.57989890763 0.0237179345064 22.091539507434
8.757200000000001 0.0237105457083 -3.240320873155 0.9997144442069 -80.58117046330 0.9997144442069 -80.58117046330 0.0237120874898 22.093854013473
8.757300000000001 0.0237046695959 -3.245169055357 0.9997145782372 -80.58244357432 0.9997145782372 -80.58244357432 0.0237062141511 22.096183846490
8.757400000000001 0.0236987669642 -3.250035621628 0.9997147128280 -80.58371825127 0.9997147128280 -80.58371825127 0.0237003143116 22.098529121157
8.757500000000000 0.0236928376403 -3.254920704175 0.9997148479820 -80.58499450438 0.9997148479820 -80.58499450438 0.0236943877991 22.100889952618
8.757600000000000 0.0236868814353 -3.259824444454 0.9997149837023 -80.58627234483 0.9997149837023 -80.58627234483 0.0236884344250 22.103266465908
8.757700000000000 0.0236808981835 -3.264746973741 0.9997151199926 -80.58755178247 0.9997151199926 -80.58755178247 0.0236824540236 22.105658770871
8.757800000000001 0.0236748877023 -3.269688432134 0.9997152568564 -80.58883282810 0.9997152568564 -80.58883282810 0.0236764464125 22.108066988093
8.757900000000001 0.0236688498003 -3.274648968232 0.9997153942984 -80.59011549309 0.9997153942984 -80.59011549309 0.0236704114000 22.110491241018
8.758000000000001 0.0236627843027 -3.279628714896 0.9997155323206 -80.59139978778 0.9997155323206 -80.59139978778 0.0236643488121 22.112931649880
8.758100000000001 0.0236566910220 -3.284627816258 0.9997156709263 -80.59268572328 0.9997156709263 -80.59268572328 0.0236582584617 22.115388339146
8.758200000000000 0.0236505697667 -3.289646422320 0.9997158101204 -80.59397331096 0.9997158101204 -80.59397331096 0.0236521401568 22.117861433363
8.758300000000000 0.0236444203624 -3.294684668534 0.9997159499054 -80.59526256114 0.9997159499054 -80.59526256114 0.0236459937237 22.120351052010
8.758400000000000 0.0236382426027 -3.299742714825 0.9997160902863 -80.59655348608 0.9997160902863 -80.59655348608 0.0236398189555 22.122857328422
8.758500000000000 0.0236320363033 -3.304820701520 0.9997162312652 -80.59784609668 0.9997162312652 -80.59784609668 0.0236336156690 22.125380389838
8.758600000000001 0.0236258012610 -3.309918787737 0.9997163728469 -80.59914040500 0.9997163728469 -80.59914040500 0.0236273836607 22.127920368354
8.758700000000001 0.0236195372944 -3.315037114763 0.9997165150342 -80.60043642180 0.9997165150342 -80.60043642180 0.0236211227495 22.130477389091
8.758800000000001 0.0236132441929 -3.320175846809 0.9997166578322 -80.60173415955 0.9997166578322 -80.60173415955 0.0236148327249 22.133051588834
8.758900000000001 0.0236069217691 -3.325335130446 0.9997168012438 -80.60303362938 0.9997168012438 -80.60303362938 0.0236085133997 22.135643096254
8.759000000000000 0.0236005698072 -3.330515129084 0.9997169452722 -80.60433484407 0.9997169452722 -80.60433484407 0.0236021645588 22.138252056184
8.759100000000000 0.0235941881159 -3.335715996896 0.9997170899223 -80.60563781497 0.9997170899223 -80.60563781497 0.0235957860107 22.140878596139
8.759200000000000 0.0235877764932 -3.340937891987 0.9997172351978 -80.60694255407 0.9997172351978 -80.60694255407 0.0235893775534 22.143522852756
8.759300000000001 0.0235813347191 -3.346180983609 0.9997173811027 -80.60824907439 0.9997173811027 -80.60824907439 0.0235829389674 22.146184972655
8.759400000000001 0.0235748625909 -3.351445431949 0.9997175276411 -80.60955738798 0.9997175276411 -80.60955738798 0.0235764700501 22.148865093229
8.759500000000001 0.0235683599072 -3.356731395341 0.9997176748164 -80.61086750677 0.9997176748164 -80.61086750677 0.0235699706004 22.151563352453
8.759600000000001 0.0235618264395 -3.362039050206 0.9997178226327 -80.61217944431 0.9997178226327 -80.61217944431 0.0235634403901 22.154279902961
8.759700000000000 0.0235552619899 -3.367368553811 0.9997179710937 -80.61349321233 0.9997179710937 -80.61349321233 0.0235568792218 22.157014881743
8.759800000000000 0.0235486663284 -3.372720088750 0.9997181202051 -80.61480882450 0.9997181202051 -80.61480882450 0.0235502868648 22.159768439319
8.759900000000000 0.0235420392482 -3.378093816477 0.9997182699697 -80.61612629306 0.9997182699697 -80.61612629306 0.0235436631133 22.162540720569
8.760000000000000 0.0235353805192 -3.383489916438 0.9997184203917 -80.61744563167 0.9997184203917 -80.61744563167 0.0235370077373 22.165331880807
8.760100000000001 0.0235286899182 -3.388908564734 0.9997185714754 -80.61876685356 0.9997185714754 -80.61876685356 0.0235303205139 22.168142071694
8.760200000000001 0.0235219672230 -3.394349939828 0.9997187232259 -80.62008997193 0.9997187232259 -80.62008997193 0.0235236012207 22.170971442789
8.760300000000001 0.0235152122160 -3.399814211703 0.9997188756460 -80.62141499967 0.9997188756460 -80.62141499967 0.0235168496410 22.173820146974
8.760400000000001 0.0235084246526 -3.405301571562 0.9997190287405 -80.62274195130 0.9997190287405 -80.62274195130 0.0235100655302 22.176688348958
8.760500000000000 0.0235016043119 -3.410812199747 0.9997191825148 -80.62407083993 0.9997191825148 -80.62407083993 0.0235032486672 22.179576197998
8.760600000000000 0.0234947509612 -3.416346276050 0.9997193369715 -80.62540167935 0.9997193369715 -80.62540167935 0.0234963988203 22.182483858147
8.760700000000000 0.0234878643551 -3.421903996685 0.9997194921164 -80.62673448414 0.9997194921164 -80.62673448414 0.0234895157440 22.185411493391
8.760800000000000 0.0234809442595 -3.427485547578 0.9997196479535 -80.62806926818 0.9997196479535 -80.62806926818 0.0234825992043 22.188359265976
8.760900000000001 0.0234739904418 -3.433091115846 0.9997198044876 -80.62940604528 0.9997198044876 -80.62940604528 0.0234756489689 22.191327336106
8.761000000000001 0.0234670026606 -3.438720892130 0.9997199617224 -80.63074482976 0.9997199617224 -80.63074482976 0.0234686647970 22.194315872089
8.761100000000001 0.0234599806608 -3.444375080013 0.9997201196635 -80.63208563676 0.9997201196635 -80.63208563676 0.0234616464334 22.197325046458
8.761200000000001 0.0234529241946 -3.450053874228 0.9997202783142 -80.63342848098 0.9997202783142 -80.63342848098 0.0234545936310 22.200355032978
8.761300000000000 0.0234458330338 -3.455757464155 0.9997204376802 -80.63477337597 0.9997204376802 -80.63477337597 0.0234475061614 22.203405989795
8.761400000000000 0.0234387068959 -3.461486068570 0.9997205977660 -80.63612033849 0.9997205977660 -80.63612033849 0.0234403837428 22.206478109506
8.761500000000000 0.0234315455509 -3.467239879436 0.9997207585772 -80.63746938222 0.9997207585772 -80.63746938222 0.0234332261446 22.209571552527
8.761600000000001 0.0234243487151 -3.473019114012 0.9997209201168 -80.63882052395 0.9997209201168 -80.63882052395 0.0234260330848 22.212686516456
8.761700000000001 0.0234171161637 -3.478823960289 0.9997210823897 -80.64017377705 0.9997210823897 -80.64017377705 0.0234188043382 22.215823162067
8.761800000000001 0.0234098476119 -3.484654644852 0.9997212454016 -80.64152915843 0.9997212454016 -80.64152915843 0.0234115396202 22.218981682486
8.761900000000001 0.0234025428104 -3.490511372003 0.9997214091577 -80.64288668290 0.9997214091577 -80.64288668290 0.0234042386817 22.222162253195
8.762000000000000 0.0233952014854 -3.496394361306 0.9997215736631 -80.64424636670 0.9997215736631 -80.64424636670 0.0233969012490 22.225365064221
8.762100000000000 0.0233878233630 -3.502303828536 0.9997217389210 -80.64560822608 0.9997217389210 -80.64560822608 0.0233895270494 22.228590310413
8.762200000000000 0.0233804081616 -3.508240004722 0.9997219049388 -80.64697227778 0.9997219049388 -80.64697227778 0.0233821158007 22.231838182988
8.762300000000000 0.0233729556214 -3.514203098588 0.9997220717195 -80.64833853721 0.9997220717195 -80.64833853721 0.0233746672442 22.235108870293
8.762400000000001 0.0233654654677 -3.520193334514 0.9997222392687 -80.64970702069 0.9997222392687 -80.64970702069 0.0233671811051 22.238402564626
8.762500000000001 0.0233579374151 -3.526210944786 0.9997224075926 -80.65107774518 0.9997224075926 -80.65107774518 0.0233596570981 22.241719464372
8.762600000000001 0.0233503711709 -3.532256163282 0.9997225766955 -80.65245072802 0.9997225766955 -80.65245072802 0.0233520949313 22.245059775969
8.762700000000001 0.0233427664614 -3.538329216298 0.9997227465833 -80.65382598551 0.9997227465833 -80.65382598551 0.0233444943309 22.248423693250
8.762800000000000 0.0233351229904 -3.544430342082 0.9997229172606 -80.65520353522 0.9997229172606 -80.65520353522 0.0233368550013 22.251811425832
8.762900000000000 0.0233274404753 -3.550559771277 0.9997230887322 -80.65658339393 0.9997230887322 -80.65658339393 0.0233291766606 22.255223176189
8.763000000000000 0.0233197186169 -3.556717750565 0.9997232610049 -80.65796557942 0.9997232610049 -80.65796557942 0.0233214590092 22.258659152743
8.763100000000000 0.0233119571125 -3.562904525834 0.9997234340840 -80.65935010967 0.9997234340840 -80.65935010967 0.0233137017449 22.262119570147
8.763200000000001 0.0233041556594 -3.569120341480 0.9997236079740 -80.66073700265 0.9997236079740 -80.66073700265 0.0233059045659 22.265604645630
8.763300000000001 0.0232963139672 -3.575365439995 0.9997237826810 -80.66212627562 0.9997237826810 -80.66212627562 0.0232980671817 22.269114586323
8.763400000000001 0.0232884317227 -3.581640075548 0.9997239582100 -80.66351794719 0.9997239582100 -80.66351794719 0.0232901892798 22.272649616060
8.763500000000001 0.0232805086117 -3.587944507119 0.9997241345676 -80.66491203601 0.9997241345676 -80.66491203601 0.0232822705460 22.276209956756
8.763600000000000 0.0232725443175 -3.594278993312 0.9997243117590 -80.66630856090 0.9997243117590 -80.66630856090 0.0232743106642 22.279795835512
8.763700000000000 0.0232645385342 -3.600643787288 0.9997244897895 -80.66770754005 0.9997244897895 -80.66770754005 0.0232663093290 22.283407473949
8.763800000000000 0.0232564909447 -3.607039154612 0.9997246686663 -80.66910899230 0.9997246686663 -80.66910899230 0.0232582662230 22.287045096668
8.763900000000001 0.0232484012087 -3.613465370228 0.9997248483946 -80.67051293786 0.9997248483946 -80.67051293786 0.0232501810068 22.290708947758
8.764000000000001 0.0232402690212 -3.619922688459 0.9997250289791 -80.67191939485 0.9997250289791 -80.67191939485 0.0232420533761 22.294399251931
8.764100000000001 0.0232320940428 -3.626411389658 0.9997252104264 -80.67332838345 0.9997252104264 -80.67332838345 0.0232338829917 22.298116251230
8.764200000000001 0.0232238759308 -3.632931756973 0.9997253927432 -80.67473992402 0.9997253927432 -80.67473992402 0.0232256695112 22.301860190514
8.764300000000000 0.0232156143596 -3.639484061725 0.9997255759348 -80.67615403591 0.9997255759348 -80.67615403591 0.0232174126094 22.305631308165
8.764400000000000 0.0232073089909 -3.646068585631 0.9997257600076 -80.67757073924 0.9997257600076 -80.67757073924 0.0232091119485 22.309429849447
8.764500000000000 0.0231989594729 -3.652685621019 0.9997259449682 -80.67899005491 0.9997259449682 -80.67899005491 0.0232007671770 22.313256067101
8.764600000000000 0.0231905654652 -3.659335453156 0.9997261308229 -80.68041200317 0.9997261308229 -80.68041200317 0.0231923779546 22.317110209631
8.764700000000001 0.0231821266261 -3.666018366259 0.9997263175767 -80.68183660431 0.9997263175767 -80.68183660431 0.0231839439409 22.320992529717
8.764800000000001 0.0231736425815 -3.672734669964 0.9997265052367 -80.68326388057 0.9997265052367 -80.68326388058 0.0231754647618 22.324903296120
8.764900000000001 0.0231651129808 -3.679484660521 0.9997266938096 -80.68469385282 0.9997266938096 -80.68469385282 0.0231669400670 22.328842765040
8.765000000000001 0.0231565374595 -3.686268641518 0.9997268833015 -80.68612654269 0.9997268833015 -80.68612654269 0.0231583694928 22.332811203953
8.765100000000000 0.0231479156719 -3.693086907556 0.9997270737186 -80.68756197078 0.9997270737186 -80.68756197078 0.0231497526937 22.336808869733
8.765200000000000 0.0231392472261 -3.699939784814 0.9997272650685 -80.68900016038 0.9997272650685 -80.68900016038 0.0231410892782 22.340836044851
8.765300000000000 0.0231305317492 -3.706827585883 0.9997274573572 -80.69044113364 0.9997274573572 -80.69044113364 0.0231323788741 22.344893004931
8.765400000000001 0.0231217688575 -3.713750629712 0.9997276505902 -80.69188491338 0.9997276505902 -80.69188491338 0.0231236210987 22.348980034722
8.765500000000001 0.0231129582054 -3.720709226330 0.9997278447780 -80.69333152022 0.9997278447780 -80.69333152022 0.0231148156050 22.353097385865
8.765600000000001 0.0231040993629 -3.727703716624 0.9997280399229 -80.69478097964 0.9997280399229 -80.69478097964 0.0231059619659 22.357245380460
8.765700000000001 0.0230951919650 -3.734734422137 0.9997282360341 -80.69623331340 0.9997282360341 -80.69623331340 0.0230970598155 22.361424286858
8.765800000000000 0.0230862356080 -3.741801685244 0.9997284331197 -80.69768854552 0.9997284331197 -80.69768854552 0.0230881087504 22.365634400903
8.765900000000000 0.0230772298999 -3.748905833473 0.9997286311840 -80.69914669929 0.9997286311840 -80.69914669929 0.0230791083803 22.369876021092
8.766000000000000 0.0230681744353 -3.756047215460 0.9997288302358 -80.70060779885 0.9997288302358 -80.70060779885 0.0230700582993 22.374149445004
8.766100000000000 0.0230590688007 -3.763226181592 0.9997290302822 -80.70207186879 0.9997290302822 -80.70207186879 0.0230609580949 22.378454980095
8.766200000000001 0.0230499125998 -3.770443069996 0.9997292313289 -80.70353893268 0.9997292313289 -80.70353893268 0.0230518073716 22.382792928275
8.766300000000001 0.0230407054033 -3.777698247786 0.9997294333847 -80.70500901608 0.9997294333847 -80.70500901608 0.0230426057002 22.387163605655
8.766400000000001 0.0230314467789 -3.784992084588 0.9997296364581 -80.70648214470 0.9997296364581 -80.70648214470 0.0230333526487 22.391567332249
8.766500000000001 0.0230221363377 -3.792324916292 0.9997298405538 -80.70795834170 0.9997298405538 -80.70795834170 0.0230240478293 22.396004411854
8.766600000000000 0.0230127736201 -3.799697133261 0.9997300456807 -80.70943763441 0.9997300456807 -80.70943763441 0.0230146907830 22.400475182573
8.766700000000000 0.0230033581999 -3.807109105070 0.9997302518468 -80.71092004822 0.9997302518468 -80.71092004822 0.0230052810837 22.404979966452
8.766800000000000 0.0229938896300 -3.814561215165 0.9997304590599 -80.71240560972 0.9997304590599 -80.71240560972 0.0229958182849 22.409519099601
8.766900000000000 0.0229843674940 -3.822053824803 0.9997306673257 -80.71389434370 0.9997306673257 -80.71389434370 0.0229863019716 22.414092906110
8.767000000000001 0.0229747912937 -3.829587354456 0.9997308766532 -80.71538627979 0.9997308766532 -80.71538627979 0.0229767316462 22.418701753681
8.767100000000001 0.0229651606026 -3.837162183643 0.9997310870515 -80.71688144342 0.9997310870515 -80.71688144342 0.0229671068817 22.423345968021
8.767200000000001 0.0229554749785 -3.844778697423 0.9997312985274 -80.71837986092 0.9997312985274 -80.71837986092 0.0229574272370 22.428025890787
8.767300000000001 0.0229457339323 -3.852437312376 0.9997315110885 -80.71988156138 0.9997315110885 -80.71988156138 0.0229476922242 22.432741892422
8.767400000000000 0.0229359369951 -3.860138440799 0.9997317247445 -80.72138657273 0.9997317247445 -80.72138657273 0.0229379013742 22.437494327565
8.767500000000000 0.0229260837016 -3.867882487000 0.9997319395022 -80.72289492269 0.9997319395022 -80.72289492269 0.0229280542228 22.442283557379
8.767600000000000 0.0229161735586 -3.875669877649 0.9997321553699 -80.72440664059 0.9997321553699 -80.72440664059 0.0229181502779 22.447109958187
8.767700000000001 0.0229062060962 -3.883501027904 0.9997323723559 -80.72592175445 0.9997323723559 -80.72592175445 0.0229081890699 22.451973893555
8.767800000000001 0.0228961807957 -3.891376385808 0.9997325904693 -80.72744029514 0.9997325904693 -80.72744029514 0.0228981700807 22.456875757680
8.767900000000001 0.0228860971806 -3.899296374952 0.9997328097186 -80.72896229106 0.9997328097186 -80.72896229106 0.0228880928345 22.461815921282
8.768000000000001 0.0228759547442 -3.907261440178 0.9997330301127 -80.73048777239 0.9997330301127 -80.73048777239 0.0228779568252 22.466794774774
8.768100000000000 0.0228657529780 -3.915272027183 0.9997332516597 -80.73201676942 0.9997332516597 -80.73201676942 0.0228677615450 22.471812713948
8.768200000000000 0.0228554913570 -3.923328593762 0.9997334743676 -80.73354931340 0.9997334743676 -80.73354931340 0.0228575064704 22.476870146185
8.768300000000000 0.0228451693801 -3.931431591227 0.9997336982466 -80.73508543422 0.9997336982466 -80.73508543422 0.0228471911002 22.481967461522
8.768400000000000 0.0228347865051 -3.939581491999 0.9997339233046 -80.73662516417 0.9997339233046 -80.73662516417 0.0228368148934 22.487105082530
8.768500000000001 0.0228243422001 -3.947778768746 0.9997341495511 -80.73816853493 0.9997341495511 -80.73816853493 0.0228263773189 22.492283423605
8.768600000000001 0.0228138359245 -3.956023904232 0.9997343769965 -80.73971557875 0.9997343769965 -80.73971557875 0.0228158778361 22.497502904790
8.768700000000001 0.0228032671591 -3.964317360772 0.9997346056476 -80.74126632655 0.9997346056476 -80.74126632655 0.0228053159276 22.502763943431
8.768800000000001 0.0227926352898 -3.972659673341 0.9997348355157 -80.74282081492 0.9997348355157 -80.74282081492 0.0227946909797 22.508067006812
8.768900000000000 0.0227819398042 -3.981051309957 0.9997350666096 -80.74437907440 0.9997350666096 -80.74437907440 0.0227840024807 22.513412508250
8.769000000000000 0.0227711801415 -3.989492771933 0.9997352989382 -80.74594113845 0.9997352989382 -80.74594113845 0.0227732498709 22.518800892031
8.769100000000000 0.0227603557239 -3.997984574489 0.9997355325110 -80.74750704149 0.9997355325110 -80.74750704149 0.0227624325733 22.524232614524
8.769200000000000 0.0227494659608 -4.006527248287 0.9997357673394 -80.74907681874 0.9997357673394 -80.74907681874 0.0227515499977 22.529708138053
8.769300000000001 0.0227385102464 -4.015121329105 0.9997360034319 -80.75065050628 0.9997360034319 -80.75065050628 0.0227406015399 22.535227942688
8.769400000000001 0.0227274880339 -4.023767320959 0.9997362407982 -80.75222813677 0.9997362407982 -80.75222813677 0.0227295866536 22.540792473209
8.769500000000001 0.0227163987081 -4.032465775549 0.9997364794484 -80.75380974687 0.9997364794484 -80.75380974687 0.0227185047246 22.546402216613
8.769600000000001 0.0227052416355 -4.041217259720 0.9997367193936 -80.75539537435 0.9997367193936 -80.75539537435 0.0227073551202 22.552057672724
8.769700000000000 0.0226940162405 -4.050022301806 0.9997369606425 -80.75698505355 0.9997369606425 -80.75698505355 0.0226961372659 22.557759313508
8.769800000000000 0.0226827218822 -4.058881482722 0.9997372032071 -80.75857882272 0.9997372032071 -80.75857882272 0.0226848505212 22.563507645729
8.769900000000000 0.0226713579164 -4.067795378589 0.9997374470961 -80.76017672023 0.9997374470961 -80.76017672023 0.0226734942440 22.569303189498
8.770000000000001 0.0226599237349 -4.076764553575 0.9997376923207 -80.76177878240 0.9997376923207 -80.76177878240 0.0226620678262 22.575146439353
8.770100000000001 0.0226484186664 -4.085789617159 0.9997379388933 -80.76338504928 0.9997379388933 -80.76338504928 0.0226505705973 22.581037928723