! Sonnet Data File
! From: emgraph Version : 16.52
! From Project: 171117_Xmon_fullysym
! Data is De-embedded 
! Data File Written: 11/27/2017 00:27:55
!< HDATE 11/26/2017 21:47:59
!< MDATE 11/26/2017 21:47:59
!< PARAMS
!< Lj = 11.0
!< Gap = 1.0
!< Pwid = 2000.0
!< Airgap = 6.0
!< Width = 10.0
!< Lj1 = 10.66
!< END PARAMS
# GHZ S MA R 50.90000
8.76000000 0.023170 -3.551 0.999727 -80.64 0.999727 -80.64 0.023171 22.289
!< P1 F=8.76 Eeff=(6.44841381 -2.9796e-5) Z0=(50.9085048 1.17026e-4) R=0.0 C=0.0 
!< P2 F=8.76 Eeff=(6.44841381 -2.9796e-5) Z0=(50.9085048 1.17026e-4) R=0.0 C=0.0 
8.76005000 0.023167 -3.553 0.999727 -80.64 0.999727 -80.64 0.023169 22.290
8.76010000 0.023164 -3.556 0.999727 -80.64 0.999727 -80.64 0.023166 22.292
8.76015000 0.023162 -3.558 0.999727 -80.64 0.999727 -80.64 0.023163 22.293
8.76020000 0.023159 -3.560 0.999727 -80.64 0.999727 -80.64 0.023161 22.294
8.76025000 0.023157 -3.563 0.999728 -80.64 0.999728 -80.64 0.023158 22.295
8.76030000 0.023154 -3.565 0.999728 -80.64 0.999728 -80.64 0.023155 22.296
8.76035000 0.023151 -3.567 0.999728 -80.64 0.999728 -80.64 0.023153 22.297
8.76040000 0.023149 -3.570 0.999728 -80.64 0.999728 -80.64 0.023150 22.298
8.76045000 0.023146 -3.572 0.999728 -80.64 0.999728 -80.64 0.023148 22.299
8.76050000 0.023143 -3.574 0.999728 -80.64 0.999728 -80.64 0.023145 22.300
8.76055000 0.023141 -3.577 0.999728 -80.65 0.999728 -80.65 0.023142 22.302
8.76060000 0.023138 -3.579 0.999728 -80.65 0.999728 -80.65 0.023140 22.303
8.76065000 0.023135 -3.581 0.999728 -80.65 0.999728 -80.65 0.023137 22.304
8.76070000 0.023133 -3.584 0.999728 -80.65 0.999728 -80.65 0.023134 22.305
8.76075000 0.023130 -3.586 0.999728 -80.65 0.999728 -80.65 0.023132 22.306
8.76080000 0.023127 -3.589 0.999728 -80.65 0.999728 -80.65 0.023129 22.307
8.76085000 0.023125 -3.591 0.999728 -80.65 0.999728 -80.65 0.023126 22.308
8.76090000 0.023122 -3.593 0.999728 -80.65 0.999728 -80.65 0.023123 22.309
8.76095000 0.023119 -3.596 0.999728 -80.65 0.999728 -80.65 0.023121 22.311
8.76100000 0.023117 -3.598 0.999728 -80.65 0.999728 -80.65 0.023118 22.312
8.76105000 0.023114 -3.600 0.999729 -80.65 0.999729 -80.65 0.023115 22.313
8.76110000 0.023111 -3.603 0.999729 -80.65 0.999729 -80.65 0.023113 22.314
8.76115000 0.023108 -3.605 0.999729 -80.65 0.999729 -80.65 0.023110 22.315
8.76120000 0.023106 -3.608 0.999729 -80.65 0.999729 -80.65 0.023107 22.316
8.76125000 0.023103 -3.610 0.999729 -80.65 0.999729 -80.65 0.023104 22.318
8.76130000 0.023100 -3.612 0.999729 -80.65 0.999729 -80.65 0.023102 22.319
8.76135000 0.023097 -3.615 0.999729 -80.66 0.999729 -80.66 0.023099 22.320
8.76140000 0.023095 -3.617 0.999729 -80.66 0.999729 -80.66 0.023096 22.321
8.76145000 0.023092 -3.620 0.999729 -80.66 0.999729 -80.66 0.023093 22.322
8.76150000 0.023089 -3.622 0.999729 -80.66 0.999729 -80.66 0.023091 22.323
8.76155000 0.023086 -3.625 0.999729 -80.66 0.999729 -80.66 0.023088 22.325
8.76160000 0.023084 -3.627 0.999729 -80.66 0.999729 -80.66 0.023085 22.326
8.76165000 0.023081 -3.630 0.999729 -80.66 0.999729 -80.66 0.023082 22.327
8.76170000 0.023078 -3.632 0.999729 -80.66 0.999729 -80.66 0.023080 22.328
8.76175000 0.023075 -3.634 0.999729 -80.66 0.999729 -80.66 0.023077 22.330
8.76180000 0.023072 -3.637 0.999729 -80.66 0.999729 -80.66 0.023074 22.331
8.76185000 0.023070 -3.639 0.999729 -80.66 0.999729 -80.66 0.023071 22.332
8.76190000 0.023067 -3.642 0.999730 -80.66 0.999730 -80.66 0.023068 22.333
8.76195000 0.023064 -3.644 0.999730 -80.66 0.999730 -80.66 0.023066 22.334
8.76200000 0.023061 -3.647 0.999730 -80.66 0.999730 -80.66 0.023063 22.336
8.76205000 0.023058 -3.649 0.999730 -80.66 0.999730 -80.66 0.023060 22.337
8.76210000 0.023055 -3.652 0.999730 -80.66 0.999730 -80.66 0.023057 22.338
8.76215000 0.023053 -3.654 0.999730 -80.67 0.999730 -80.67 0.023054 22.339
8.76220000 0.023050 -3.657 0.999730 -80.67 0.999730 -80.67 0.023051 22.341
8.76225000 0.023047 -3.659 0.999730 -80.67 0.999730 -80.67 0.023048 22.342
8.76230000 0.023044 -3.662 0.999730 -80.67 0.999730 -80.67 0.023046 22.343
8.76235000 0.023041 -3.664 0.999730 -80.67 0.999730 -80.67 0.023043 22.344
8.76240000 0.023038 -3.667 0.999730 -80.67 0.999730 -80.67 0.023040 22.346
8.76245000 0.023035 -3.669 0.999730 -80.67 0.999730 -80.67 0.023037 22.347
8.76250000 0.023033 -3.672 0.999730 -80.67 0.999730 -80.67 0.023034 22.348
8.76255000 0.023030 -3.674 0.999730 -80.67 0.999730 -80.67 0.023031 22.350
8.76260000 0.023027 -3.677 0.999730 -80.67 0.999730 -80.67 0.023028 22.351
8.76265000 0.023024 -3.680 0.999731 -80.67 0.999731 -80.67 0.023025 22.352
8.76270000 0.023021 -3.682 0.999731 -80.67 0.999731 -80.67 0.023022 22.353
8.76275000 0.023018 -3.685 0.999731 -80.67 0.999731 -80.67 0.023020 22.355
8.76280000 0.023015 -3.687 0.999731 -80.67 0.999731 -80.67 0.023017 22.356
8.76285000 0.023012 -3.690 0.999731 -80.67 0.999731 -80.67 0.023014 22.357
8.76290000 0.023009 -3.692 0.999731 -80.68 0.999731 -80.68 0.023011 22.359
8.76295000 0.023006 -3.695 0.999731 -80.68 0.999731 -80.68 0.023008 22.360
8.76300000 0.023003 -3.698 0.999731 -80.68 0.999731 -80.68 0.023005 22.361
8.76305000 0.023000 -3.700 0.999731 -80.68 0.999731 -80.68 0.023002 22.363
8.76310000 0.022997 -3.703 0.999731 -80.68 0.999731 -80.68 0.022999 22.364
8.76315000 0.022994 -3.705 0.999731 -80.68 0.999731 -80.68 0.022996 22.365
8.76320000 0.022991 -3.708 0.999731 -80.68 0.999731 -80.68 0.022993 22.367
8.76325000 0.022988 -3.711 0.999731 -80.68 0.999731 -80.68 0.022990 22.368
8.76330000 0.022985 -3.713 0.999731 -80.68 0.999731 -80.68 0.022987 22.369
8.76335000 0.022982 -3.716 0.999731 -80.68 0.999731 -80.68 0.022984 22.371
8.76340000 0.022979 -3.718 0.999731 -80.68 0.999731 -80.68 0.022981 22.372
8.76345000 0.022976 -3.721 0.999732 -80.68 0.999732 -80.68 0.022978 22.373
8.76350000 0.022973 -3.724 0.999732 -80.68 0.999732 -80.68 0.022975 22.375
8.76355000 0.022970 -3.726 0.999732 -80.68 0.999732 -80.68 0.022972 22.376
8.76360000 0.022967 -3.729 0.999732 -80.68 0.999732 -80.68 0.022969 22.378
8.76365000 0.022964 -3.732 0.999732 -80.68 0.999732 -80.68 0.022966 22.379
8.76370000 0.022961 -3.734 0.999732 -80.69 0.999732 -80.69 0.022963 22.380
8.76375000 0.022958 -3.737 0.999732 -80.69 0.999732 -80.69 0.022960 22.382
8.76380000 0.022955 -3.740 0.999732 -80.69 0.999732 -80.69 0.022957 22.383
8.76385000 0.022952 -3.742 0.999732 -80.69 0.999732 -80.69 0.022953 22.385
8.76390000 0.022949 -3.745 0.999732 -80.69 0.999732 -80.69 0.022950 22.386
8.76395000 0.022946 -3.748 0.999732 -80.69 0.999732 -80.69 0.022947 22.387
8.76400000 0.022943 -3.750 0.999732 -80.69 0.999732 -80.69 0.022944 22.389
8.76405000 0.022939 -3.753 0.999732 -80.69 0.999732 -80.69 0.022941 22.390
8.76410000 0.022936 -3.756 0.999732 -80.69 0.999732 -80.69 0.022938 22.392
8.76415000 0.022933 -3.759 0.999733 -80.69 0.999733 -80.69 0.022935 22.393
8.76420000 0.022930 -3.761 0.999733 -80.69 0.999733 -80.69 0.022932 22.395
8.76425000 0.022927 -3.764 0.999733 -80.69 0.999733 -80.69 0.022929 22.396
8.76430000 0.022924 -3.767 0.999733 -80.69 0.999733 -80.69 0.022925 22.397
8.76435000 0.022921 -3.770 0.999733 -80.69 0.999733 -80.69 0.022922 22.399
8.76440000 0.022917 -3.772 0.999733 -80.69 0.999733 -80.69 0.022919 22.400
8.76445000 0.022914 -3.775 0.999733 -80.70 0.999733 -80.70 0.022916 22.402
8.76450000 0.022911 -3.778 0.999733 -80.70 0.999733 -80.70 0.022913 22.403
8.76455000 0.022908 -3.781 0.999733 -80.70 0.999733 -80.70 0.022910 22.405
8.76460000 0.022905 -3.783 0.999733 -80.70 0.999733 -80.70 0.022906 22.406
8.76465000 0.022901 -3.786 0.999733 -80.70 0.999733 -80.70 0.022903 22.408
8.76470000 0.022898 -3.789 0.999733 -80.70 0.999733 -80.70 0.022900 22.409
8.76475000 0.022895 -3.792 0.999733 -80.70 0.999733 -80.70 0.022897 22.411
8.76480000 0.022892 -3.795 0.999733 -80.70 0.999733 -80.70 0.022893 22.412
8.76485000 0.022889 -3.797 0.999733 -80.70 0.999733 -80.70 0.022890 22.414
8.76490000 0.022885 -3.800 0.999734 -80.70 0.999734 -80.70 0.022887 22.415
8.76495000 0.022882 -3.803 0.999734 -80.70 0.999734 -80.70 0.022884 22.417
8.76500000 0.022879 -3.806 0.999734 -80.70 0.999734 -80.70 0.022880 22.419
8.76505000 0.022876 -3.809 0.999734 -80.70 0.999734 -80.70 0.022877 22.420
8.76510000 0.022872 -3.812 0.999734 -80.70 0.999734 -80.70 0.022874 22.422
8.76515000 0.022869 -3.814 0.999734 -80.70 0.999734 -80.70 0.022871 22.423
8.76520000 0.022866 -3.817 0.999734 -80.70 0.999734 -80.70 0.022867 22.425
8.76525000 0.022862 -3.820 0.999734 -80.71 0.999734 -80.71 0.022864 22.426
8.76530000 0.022859 -3.823 0.999734 -80.71 0.999734 -80.71 0.022861 22.428
8.76535000 0.022856 -3.826 0.999734 -80.71 0.999734 -80.71 0.022857 22.429
8.76540000 0.022852 -3.829 0.999734 -80.71 0.999734 -80.71 0.022854 22.431
8.76545000 0.022849 -3.832 0.999734 -80.71 0.999734 -80.71 0.022851 22.433
8.76550000 0.022846 -3.835 0.999734 -80.71 0.999734 -80.71 0.022847 22.434
8.76555000 0.022842 -3.838 0.999734 -80.71 0.999734 -80.71 0.022844 22.436
8.76560000 0.022839 -3.840 0.999735 -80.71 0.999735 -80.71 0.022841 22.437
8.76565000 0.022836 -3.843 0.999735 -80.71 0.999735 -80.71 0.022837 22.439
8.76570000 0.022832 -3.846 0.999735 -80.71 0.999735 -80.71 0.022834 22.441
8.76575000 0.022829 -3.849 0.999735 -80.71 0.999735 -80.71 0.022830 22.442
8.76580000 0.022825 -3.852 0.999735 -80.71 0.999735 -80.71 0.022827 22.444
8.76585000 0.022822 -3.855 0.999735 -80.71 0.999735 -80.71 0.022824 22.446
8.76590000 0.022819 -3.858 0.999735 -80.71 0.999735 -80.71 0.022820 22.447
8.76595000 0.022815 -3.861 0.999735 -80.71 0.999735 -80.71 0.022817 22.449
8.76600000 0.022812 -3.864 0.999735 -80.72 0.999735 -80.72 0.022813 22.451
8.76605000 0.022808 -3.867 0.999735 -80.72 0.999735 -80.72 0.022810 22.452
8.76610000 0.022805 -3.870 0.999735 -80.72 0.999735 -80.72 0.022806 22.454
8.76615000 0.022801 -3.873 0.999735 -80.72 0.999735 -80.72 0.022803 22.456
8.76620000 0.022798 -3.876 0.999735 -80.72 0.999735 -80.72 0.022799 22.457
8.76625000 0.022794 -3.879 0.999736 -80.72 0.999736 -80.72 0.022796 22.459
8.76630000 0.022791 -3.882 0.999736 -80.72 0.999736 -80.72 0.022792 22.461
8.76635000 0.022787 -3.885 0.999736 -80.72 0.999736 -80.72 0.022789 22.462
8.76640000 0.022784 -3.888 0.999736 -80.72 0.999736 -80.72 0.022785 22.464
8.76645000 0.022780 -3.891 0.999736 -80.72 0.999736 -80.72 0.022782 22.466
8.76650000 0.022777 -3.894 0.999736 -80.72 0.999736 -80.72 0.022778 22.468
8.76655000 0.022773 -3.897 0.999736 -80.72 0.999736 -80.72 0.022775 22.469
8.76660000 0.022770 -3.900 0.999736 -80.72 0.999736 -80.72 0.022771 22.471
8.76665000 0.022766 -3.904 0.999736 -80.72 0.999736 -80.72 0.022768 22.473
8.76670000 0.022762 -3.907 0.999736 -80.72 0.999736 -80.72 0.022764 22.475
8.76675000 0.022759 -3.910 0.999736 -80.73 0.999736 -80.73 0.022761 22.476
8.76680000 0.022755 -3.913 0.999736 -80.73 0.999736 -80.73 0.022757 22.478
8.76685000 0.022752 -3.916 0.999736 -80.73 0.999736 -80.73 0.022753 22.480
8.76690000 0.022748 -3.919 0.999737 -80.73 0.999737 -80.73 0.022750 22.482
8.76695000 0.022744 -3.922 0.999737 -80.73 0.999737 -80.73 0.022746 22.484
8.76700000 0.022741 -3.925 0.999737 -80.73 0.999737 -80.73 0.022742 22.485
8.76705000 0.022737 -3.929 0.999737 -80.73 0.999737 -80.73 0.022739 22.487
8.76710000 0.022733 -3.932 0.999737 -80.73 0.999737 -80.73 0.022735 22.489
8.76715000 0.022730 -3.935 0.999737 -80.73 0.999737 -80.73 0.022731 22.491
8.76720000 0.022726 -3.938 0.999737 -80.73 0.999737 -80.73 0.022728 22.493
8.76725000 0.022722 -3.941 0.999737 -80.73 0.999737 -80.73 0.022724 22.495
8.76730000 0.022719 -3.944 0.999737 -80.73 0.999737 -80.73 0.022720 22.496
8.76735000 0.022715 -3.948 0.999737 -80.73 0.999737 -80.73 0.022717 22.498
8.76740000 0.022711 -3.951 0.999737 -80.73 0.999737 -80.73 0.022713 22.500
8.76745000 0.022707 -3.954 0.999737 -80.74 0.999737 -80.74 0.022709 22.502
8.76750000 0.022704 -3.957 0.999737 -80.74 0.999737 -80.74 0.022705 22.504
8.76755000 0.022700 -3.961 0.999738 -80.74 0.999738 -80.74 0.022702 22.506
8.76760000 0.022696 -3.964 0.999738 -80.74 0.999738 -80.74 0.022698 22.508
8.76765000 0.022692 -3.967 0.999738 -80.74 0.999738 -80.74 0.022694 22.510
8.76770000 0.022689 -3.970 0.999738 -80.74 0.999738 -80.74 0.022690 22.512
8.76775000 0.022685 -3.974 0.999738 -80.74 0.999738 -80.74 0.022687 22.513
8.76780000 0.022681 -3.977 0.999738 -80.74 0.999738 -80.74 0.022683 22.515
8.76785000 0.022677 -3.980 0.999738 -80.74 0.999738 -80.74 0.022679 22.517
8.76790000 0.022673 -3.984 0.999738 -80.74 0.999738 -80.74 0.022675 22.519
8.76795000 0.022669 -3.987 0.999738 -80.74 0.999738 -80.74 0.022671 22.521
8.76800000 0.022666 -3.990 0.999738 -80.74 0.999738 -80.74 0.022667 22.523
8.76805000 0.022662 -3.994 0.999738 -80.74 0.999738 -80.74 0.022663 22.525
8.76810000 0.022658 -3.997 0.999738 -80.74 0.999738 -80.74 0.022660 22.527
8.76815000 0.022654 -4.000 0.999739 -80.74 0.999739 -80.74 0.022656 22.529
8.76820000 0.022650 -4.004 0.999739 -80.75 0.999739 -80.75 0.022652 22.531
8.76825000 0.022646 -4.007 0.999739 -80.75 0.999739 -80.75 0.022648 22.533
8.76830000 0.022642 -4.010 0.999739 -80.75 0.999739 -80.75 0.022644 22.535
8.76835000 0.022638 -4.014 0.999739 -80.75 0.999739 -80.75 0.022640 22.537
8.76840000 0.022634 -4.017 0.999739 -80.75 0.999739 -80.75 0.022636 22.539
8.76845000 0.022630 -4.021 0.999739 -80.75 0.999739 -80.75 0.022632 22.541
8.76850000 0.022626 -4.024 0.999739 -80.75 0.999739 -80.75 0.022628 22.543
8.76855000 0.022622 -4.028 0.999739 -80.75 0.999739 -80.75 0.022624 22.546
8.76860000 0.022618 -4.031 0.999739 -80.75 0.999739 -80.75 0.022620 22.548
8.76865000 0.022614 -4.035 0.999739 -80.75 0.999739 -80.75 0.022616 22.550
8.76870000 0.022610 -4.038 0.999740 -80.75 0.999740 -80.75 0.022612 22.552
8.76875000 0.022606 -4.041 0.999740 -80.75 0.999740 -80.75 0.022608 22.554
8.76880000 0.022602 -4.045 0.999740 -80.75 0.999740 -80.75 0.022604 22.556
8.76885000 0.022598 -4.048 0.999740 -80.75 0.999740 -80.75 0.022600 22.558
8.76890000 0.022594 -4.052 0.999740 -80.76 0.999740 -80.76 0.022596 22.560
8.76895000 0.022590 -4.056 0.999740 -80.76 0.999740 -80.76 0.022592 22.563
8.76900000 0.022586 -4.059 0.999740 -80.76 0.999740 -80.76 0.022587 22.565
8.76905000 0.022581 -4.063 0.999740 -80.76 0.999740 -80.76 0.022583 22.567
8.76910000 0.022577 -4.066 0.999740 -80.76 0.999740 -80.76 0.022579 22.569
8.76915000 0.022573 -4.070 0.999740 -80.76 0.999740 -80.76 0.022575 22.571
8.76920000 0.022569 -4.073 0.999740 -80.76 0.999740 -80.76 0.022571 22.573
8.76925000 0.022565 -4.077 0.999740 -80.76 0.999740 -80.76 0.022567 22.576
8.76930000 0.022560 -4.081 0.999741 -80.76 0.999741 -80.76 0.022562 22.578
8.76935000 0.022556 -4.084 0.999741 -80.76 0.999741 -80.76 0.022558 22.580
8.76940000 0.022552 -4.088 0.999741 -80.76 0.999741 -80.76 0.022554 22.582
8.76945000 0.022548 -4.092 0.999741 -80.76 0.999741 -80.76 0.022550 22.585
8.76950000 0.022543 -4.095 0.999741 -80.76 0.999741 -80.76 0.022545 22.587
8.76955000 0.022539 -4.099 0.999741 -80.76 0.999741 -80.76 0.022541 22.589
8.76960000 0.022535 -4.103 0.999741 -80.77 0.999741 -80.77 0.022537 22.591
8.76965000 0.022531 -4.106 0.999741 -80.77 0.999741 -80.77 0.022533 22.594
8.76970000 0.022526 -4.110 0.999741 -80.77 0.999741 -80.77 0.022528 22.596
8.76975000 0.022522 -4.114 0.999741 -80.77 0.999741 -80.77 0.022524 22.598
8.76980000 0.022518 -4.118 0.999741 -80.77 0.999741 -80.77 0.022520 22.601
8.76985000 0.022513 -4.121 0.999742 -80.77 0.999742 -80.77 0.022515 22.603
8.76990000 0.022509 -4.125 0.999742 -80.77 0.999742 -80.77 0.022511 22.605
8.76995000 0.022504 -4.129 0.999742 -80.77 0.999742 -80.77 0.022506 22.608
8.77000000 0.022500 -4.133 0.999742 -80.77 0.999742 -80.77 0.022502 22.610
8.77005000 0.022496 -4.137 0.999742 -80.77 0.999742 -80.77 0.022498 22.613
8.77010000 0.022491 -4.140 0.999742 -80.77 0.999742 -80.77 0.022493 22.615
8.77015000 0.022487 -4.144 0.999742 -80.77 0.999742 -80.77 0.022489 22.617
8.77020000 0.022482 -4.148 0.999742 -80.77 0.999742 -80.77 0.022484 22.620
8.77025000 0.022478 -4.152 0.999742 -80.77 0.999742 -80.77 0.022480 22.622
8.77030000 0.022473 -4.156 0.999742 -80.78 0.999742 -80.78 0.022475 22.625
8.77035000 0.022469 -4.160 0.999742 -80.78 0.999742 -80.78 0.022471 22.627
8.77040000 0.022464 -4.164 0.999743 -80.78 0.999743 -80.78 0.022466 22.630
8.77045000 0.022460 -4.168 0.999743 -80.78 0.999743 -80.78 0.022461 22.632
8.77050000 0.022455 -4.171 0.999743 -80.78 0.999743 -80.78 0.022457 22.635
8.77055000 0.022450 -4.175 0.999743 -80.78 0.999743 -80.78 0.022452 22.637
8.77060000 0.022446 -4.179 0.999743 -80.78 0.999743 -80.78 0.022448 22.640
8.77065000 0.022441 -4.183 0.999743 -80.78 0.999743 -80.78 0.022443 22.642
8.77070000 0.022436 -4.187 0.999743 -80.78 0.999743 -80.78 0.022438 22.645
8.77075000 0.022432 -4.191 0.999743 -80.78 0.999743 -80.78 0.022434 22.647
8.77080000 0.022427 -4.195 0.999743 -80.78 0.999743 -80.78 0.022429 22.650
8.77085000 0.022422 -4.199 0.999743 -80.78 0.999743 -80.78 0.022424 22.653
8.77090000 0.022418 -4.204 0.999744 -80.78 0.999744 -80.78 0.022420 22.655
8.77095000 0.022413 -4.208 0.999744 -80.78 0.999744 -80.78 0.022415 22.658
8.77100000 0.022408 -4.212 0.999744 -80.79 0.999744 -80.79 0.022410 22.661
8.77105000 0.022403 -4.216 0.999744 -80.79 0.999744 -80.79 0.022405 22.663
8.77110000 0.022399 -4.220 0.999744 -80.79 0.999744 -80.79 0.022401 22.666
8.77115000 0.022394 -4.224 0.999744 -80.79 0.999744 -80.79 0.022396 22.669
8.77120000 0.022389 -4.228 0.999744 -80.79 0.999744 -80.79 0.022391 22.671
8.77125000 0.022384 -4.232 0.999744 -80.79 0.999744 -80.79 0.022386 22.674
8.77130000 0.022379 -4.237 0.999744 -80.79 0.999744 -80.79 0.022381 22.677
8.77135000 0.022374 -4.241 0.999744 -80.79 0.999744 -80.79 0.022376 22.679
8.77140000 0.022369 -4.245 0.999745 -80.79 0.999745 -80.79 0.022371 22.682
8.77145000 0.022364 -4.249 0.999745 -80.79 0.999745 -80.79 0.022366 22.685
8.77150000 0.022359 -4.254 0.999745 -80.79 0.999745 -80.79 0.022362 22.688
8.77155000 0.022354 -4.258 0.999745 -80.79 0.999745 -80.79 0.022357 22.691
8.77160000 0.022350 -4.262 0.999745 -80.79 0.999745 -80.79 0.022352 22.693
8.77165000 0.022344 -4.267 0.999745 -80.80 0.999745 -80.80 0.022347 22.696
8.77170000 0.022339 -4.271 0.999745 -80.80 0.999745 -80.80 0.022342 22.699
8.77175000 0.022334 -4.275 0.999745 -80.80 0.999745 -80.80 0.022336 22.702
8.77180000 0.022329 -4.280 0.999745 -80.80 0.999745 -80.80 0.022331 22.705
8.77185000 0.022324 -4.284 0.999746 -80.80 0.999746 -80.80 0.022326 22.708
8.77190000 0.022319 -4.288 0.999746 -80.80 0.999746 -80.80 0.022321 22.711
8.77195000 0.022314 -4.293 0.999746 -80.80 0.999746 -80.80 0.022316 22.714
8.77200000 0.022309 -4.297 0.999746 -80.80 0.999746 -80.80 0.022311 22.717
8.77205000 0.022304 -4.302 0.999746 -80.80 0.999746 -80.80 0.022306 22.720
8.77210000 0.022298 -4.306 0.999746 -80.80 0.999746 -80.80 0.022301 22.723
8.77215000 0.022293 -4.311 0.999746 -80.80 0.999746 -80.80 0.022295 22.726
8.77220000 0.022288 -4.315 0.999746 -80.80 0.999746 -80.80 0.022290 22.729
8.77225000 0.022283 -4.320 0.999746 -80.80 0.999746 -80.80 0.022285 22.732
8.77230000 0.022277 -4.324 0.999746 -80.81 0.999746 -80.81 0.022280 22.735
8.77235000 0.022272 -4.329 0.999747 -80.81 0.999747 -80.81 0.022274 22.738
8.77240000 0.022267 -4.334 0.999747 -80.81 0.999747 -80.81 0.022269 22.741
8.77245000 0.022261 -4.338 0.999747 -80.81 0.999747 -80.81 0.022264 22.744
8.77250000 0.022256 -4.343 0.999747 -80.81 0.999747 -80.81 0.022258 22.747
8.77255000 0.022251 -4.348 0.999747 -80.81 0.999747 -80.81 0.022253 22.750
8.77260000 0.022245 -4.352 0.999747 -80.81 0.999747 -80.81 0.022247 22.753
8.77265000 0.022240 -4.357 0.999747 -80.81 0.999747 -80.81 0.022242 22.757
8.77270000 0.022234 -4.362 0.999747 -80.81 0.999747 -80.81 0.022236 22.760
8.77275000 0.022229 -4.366 0.999747 -80.81 0.999747 -80.81 0.022231 22.763
8.77280000 0.022223 -4.371 0.999748 -80.81 0.999748 -80.81 0.022225 22.766
8.77285000 0.022218 -4.376 0.999748 -80.81 0.999748 -80.81 0.022220 22.770
8.77290000 0.022212 -4.381 0.999748 -80.81 0.999748 -80.81 0.022214 22.773
8.77295000 0.022206 -4.386 0.999748 -80.82 0.999748 -80.82 0.022209 22.776
8.77300000 0.022201 -4.391 0.999748 -80.82 0.999748 -80.82 0.022203 22.780
8.77305000 0.022195 -4.395 0.999748 -80.82 0.999748 -80.82 0.022197 22.783
8.77310000 0.022189 -4.400 0.999748 -80.82 0.999748 -80.82 0.022192 22.786
8.77315000 0.022184 -4.405 0.999748 -80.82 0.999748 -80.82 0.022186 22.790
8.77320000 0.022178 -4.410 0.999749 -80.82 0.999749 -80.82 0.022180 22.793
8.77325000 0.022172 -4.415 0.999749 -80.82 0.999749 -80.82 0.022174 22.797
8.77330000 0.022166 -4.420 0.999749 -80.82 0.999749 -80.82 0.022169 22.800
8.77335000 0.022160 -4.425 0.999749 -80.82 0.999749 -80.82 0.022163 22.803
8.77340000 0.022155 -4.430 0.999749 -80.82 0.999749 -80.82 0.022157 22.807
8.77345000 0.022149 -4.436 0.999749 -80.82 0.999749 -80.82 0.022151 22.811
8.77350000 0.022143 -4.441 0.999749 -80.82 0.999749 -80.82 0.022145 22.814
8.77355000 0.022137 -4.446 0.999749 -80.83 0.999749 -80.83 0.022139 22.818
8.77360000 0.022131 -4.451 0.999749 -80.83 0.999749 -80.83 0.022133 22.821
8.77365000 0.022125 -4.456 0.999750 -80.83 0.999750 -80.83 0.022127 22.825
8.77370000 0.022119 -4.461 0.999750 -80.83 0.999750 -80.83 0.022121 22.829
8.77375000 0.022113 -4.467 0.999750 -80.83 0.999750 -80.83 0.022115 22.832
8.77380000 0.022107 -4.472 0.999750 -80.83 0.999750 -80.83 0.022109 22.836
8.77385000 0.022100 -4.477 0.999750 -80.83 0.999750 -80.83 0.022103 22.840
8.77390000 0.022094 -4.483 0.999750 -80.83 0.999750 -80.83 0.022097 22.843
8.77395000 0.022088 -4.488 0.999750 -80.83 0.999750 -80.83 0.022091 22.847
8.77400000 0.022082 -4.493 0.999750 -80.83 0.999750 -80.83 0.022084 22.851
8.77405000 0.022076 -4.499 0.999751 -80.83 0.999751 -80.83 0.022078 22.855
8.77410000 0.022069 -4.504 0.999751 -80.83 0.999751 -80.83 0.022072 22.859
8.77415000 0.022063 -4.510 0.999751 -80.84 0.999751 -80.84 0.022065 22.862
8.77420000 0.022057 -4.515 0.999751 -80.84 0.999751 -80.84 0.022059 22.866
8.77425000 0.022050 -4.521 0.999751 -80.84 0.999751 -80.84 0.022053 22.870
8.77430000 0.022044 -4.526 0.999751 -80.84 0.999751 -80.84 0.022046 22.874
8.77435000 0.022037 -4.532 0.999751 -80.84 0.999751 -80.84 0.022040 22.878
8.77440000 0.022031 -4.538 0.999751 -80.84 0.999751 -80.84 0.022033 22.882
8.77445000 0.022024 -4.543 0.999752 -80.84 0.999752 -80.84 0.022027 22.886
8.77450000 0.022018 -4.549 0.999752 -80.84 0.999752 -80.84 0.022020 22.890
8.77455000 0.022011 -4.555 0.999752 -80.84 0.999752 -80.84 0.022014 22.894
8.77460000 0.022005 -4.560 0.999752 -80.84 0.999752 -80.84 0.022007 22.899
8.77465000 0.021998 -4.566 0.999752 -80.84 0.999752 -80.84 0.022000 22.903
8.77470000 0.021991 -4.572 0.999752 -80.84 0.999752 -80.84 0.021994 22.907
8.77475000 0.021985 -4.578 0.999752 -80.85 0.999752 -80.85 0.021987 22.911
8.77480000 0.021978 -4.584 0.999753 -80.85 0.999753 -80.85 0.021980 22.915
8.77485000 0.021971 -4.590 0.999753 -80.85 0.999753 -80.85 0.021973 22.920
8.77490000 0.021964 -4.596 0.999753 -80.85 0.999753 -80.85 0.021967 22.924
8.77495000 0.021957 -4.602 0.999753 -80.85 0.999753 -80.85 0.021960 22.928
8.77500000 0.021950 -4.608 0.999753 -80.85 0.999753 -80.85 0.021953 22.933
8.77505000 0.021943 -4.614 0.999753 -80.85 0.999753 -80.85 0.021946 22.937
8.77510000 0.021936 -4.620 0.999753 -80.85 0.999753 -80.85 0.021939 22.942
8.77515000 0.021929 -4.626 0.999753 -80.85 0.999753 -80.85 0.021932 22.946
8.77520000 0.021922 -4.632 0.999754 -80.85 0.999754 -80.85 0.021925 22.951
8.77525000 0.021915 -4.639 0.999754 -80.85 0.999754 -80.85 0.021918 22.955
8.77530000 0.021908 -4.645 0.999754 -80.86 0.999754 -80.86 0.021910 22.960
8.77535000 0.021900 -4.651 0.999754 -80.86 0.999754 -80.86 0.021903 22.964
8.77540000 0.021893 -4.658 0.999754 -80.86 0.999754 -80.86 0.021896 22.969
8.77545000 0.021886 -4.664 0.999754 -80.86 0.999754 -80.86 0.021889 22.974
8.77550000 0.021879 -4.670 0.999754 -80.86 0.999754 -80.86 0.021881 22.978
8.77555000 0.021871 -4.677 0.999755 -80.86 0.999755 -80.86 0.021874 22.983
8.77560000 0.021864 -4.683 0.999755 -80.86 0.999755 -80.86 0.021866 22.988
8.77565000 0.021856 -4.690 0.999755 -80.86 0.999755 -80.86 0.021859 22.993
8.77570000 0.021849 -4.697 0.999755 -80.86 0.999755 -80.86 0.021851 22.998
8.77575000 0.021841 -4.703 0.999755 -80.86 0.999755 -80.86 0.021844 23.003
8.77580000 0.021833 -4.710 0.999755 -80.86 0.999755 -80.86 0.021836 23.008
8.77585000 0.021826 -4.717 0.999755 -80.87 0.999755 -80.87 0.021828 23.013
8.77590000 0.021818 -4.724 0.999756 -80.87 0.999756 -80.87 0.021821 23.018
8.77595000 0.021810 -4.730 0.999756 -80.87 0.999756 -80.87 0.021813 23.023
8.77600000 0.021802 -4.737 0.999756 -80.87 0.999756 -80.87 0.021805 23.028
8.77605000 0.021794 -4.744 0.999756 -80.87 0.999756 -80.87 0.021797 23.033
8.77610000 0.021786 -4.751 0.999756 -80.87 0.999756 -80.87 0.021789 23.038
8.77615000 0.021778 -4.758 0.999756 -80.87 0.999756 -80.87 0.021781 23.044
8.77620000 0.021770 -4.765 0.999757 -80.87 0.999757 -80.87 0.021773 23.049
8.77625000 0.021762 -4.772 0.999757 -80.87 0.999757 -80.87 0.021765 23.054
8.77630000 0.021754 -4.780 0.999757 -80.87 0.999757 -80.87 0.021757 23.060
8.77635000 0.021746 -4.787 0.999757 -80.87 0.999757 -80.87 0.021749 23.065
8.77640000 0.021738 -4.794 0.999757 -80.88 0.999757 -80.88 0.021741 23.071
8.77645000 0.021729 -4.801 0.999757 -80.88 0.999757 -80.88 0.021732 23.076
8.77650000 0.021721 -4.809 0.999757 -80.88 0.999757 -80.88 0.021724 23.082
8.77655000 0.021713 -4.816 0.999758 -80.88 0.999758 -80.88 0.021715 23.087
8.77660000 0.021704 -4.824 0.999758 -80.88 0.999758 -80.88 0.021707 23.093
8.77665000 0.021695 -4.831 0.999758 -80.88 0.999758 -80.88 0.021698 23.099
8.77670000 0.021687 -4.839 0.999758 -80.88 0.999758 -80.88 0.021690 23.105
8.77675000 0.021678 -4.847 0.999758 -80.88 0.999758 -80.88 0.021681 23.110
8.77680000 0.021669 -4.854 0.999758 -80.88 0.999758 -80.88 0.021672 23.116
8.77685000 0.021661 -4.862 0.999759 -80.88 0.999759 -80.88 0.021664 23.122
8.77690000 0.021652 -4.870 0.999759 -80.89 0.999759 -80.89 0.021655 23.128
8.77695000 0.021643 -4.878 0.999759 -80.89 0.999759 -80.89 0.021646 23.134
8.77700000 0.021634 -4.886 0.999759 -80.89 0.999759 -80.89 0.021637 23.141
8.77705000 0.021625 -4.894 0.999759 -80.89 0.999759 -80.89 0.021628 23.147
8.77710000 0.021616 -4.902 0.999759 -80.89 0.999759 -80.89 0.021619 23.153
8.77715000 0.021606 -4.910 0.999760 -80.89 0.999760 -80.89 0.021609 23.159
8.77720000 0.021597 -4.919 0.999760 -80.89 0.999760 -80.89 0.021600 23.166
8.77725000 0.021588 -4.927 0.999760 -80.89 0.999760 -80.89 0.021591 23.172
8.77730000 0.021578 -4.935 0.999760 -80.89 0.999760 -80.89 0.021581 23.179
8.77735000 0.021569 -4.944 0.999760 -80.89 0.999760 -80.89 0.021572 23.185
8.77740000 0.021559 -4.952 0.999761 -80.90 0.999761 -80.90 0.021562 23.192
8.77745000 0.021550 -4.961 0.999761 -80.90 0.999761 -80.90 0.021553 23.198
8.77750000 0.021540 -4.970 0.999761 -80.90 0.999761 -80.90 0.021543 23.205
8.77755000 0.021530 -4.978 0.999761 -80.90 0.999761 -80.90 0.021533 23.212
8.77760000 0.021520 -4.987 0.999761 -80.90 0.999761 -80.90 0.021523 23.219
8.77765000 0.021510 -4.996 0.999761 -80.90 0.999761 -80.90 0.021513 23.226
8.77770000 0.021500 -5.005 0.999762 -80.90 0.999762 -80.90 0.021503 23.233
8.77775000 0.021490 -5.014 0.999762 -80.90 0.999762 -80.90 0.021493 23.240
8.77780000 0.021480 -5.023 0.999762 -80.90 0.999762 -80.90 0.021483 23.247
8.77785000 0.021469 -5.033 0.999762 -80.91 0.999762 -80.91 0.021473 23.254
8.77790000 0.021459 -5.042 0.999762 -80.91 0.999762 -80.91 0.021462 23.262
8.77795000 0.021449 -5.051 0.999763 -80.91 0.999763 -80.91 0.021452 23.269
8.77800000 0.021438 -5.061 0.999763 -80.91 0.999763 -80.91 0.021441 23.277
8.77805000 0.021427 -5.070 0.999763 -80.91 0.999763 -80.91 0.021431 23.284
8.77810000 0.021417 -5.080 0.999763 -80.91 0.999763 -80.91 0.021420 23.292
8.77815000 0.021406 -5.090 0.999763 -80.91 0.999763 -80.91 0.021409 23.300
8.77820000 0.021395 -5.100 0.999764 -80.91 0.999764 -80.91 0.021398 23.308
8.77825000 0.021384 -5.110 0.999764 -80.91 0.999764 -80.91 0.021387 23.315
8.77830000 0.021373 -5.120 0.999764 -80.92 0.999764 -80.92 0.021376 23.323
8.77835000 0.021361 -5.130 0.999764 -80.92 0.999764 -80.92 0.021365 23.332
8.77840000 0.021350 -5.140 0.999764 -80.92 0.999764 -80.92 0.021354 23.340
8.77845000 0.021339 -5.150 0.999765 -80.92 0.999765 -80.92 0.021342 23.348
8.77850000 0.021327 -5.161 0.999765 -80.92 0.999765 -80.92 0.021331 23.356
8.77855000 0.021315 -5.171 0.999765 -80.92 0.999765 -80.92 0.021319 23.365
8.77860000 0.021304 -5.182 0.999765 -80.92 0.999765 -80.92 0.021307 23.373
8.77865000 0.021292 -5.193 0.999765 -80.92 0.999765 -80.92 0.021296 23.382
8.77870000 0.021280 -5.204 0.999766 -80.92 0.999766 -80.92 0.021284 23.391
8.77875000 0.021268 -5.215 0.999766 -80.93 0.999766 -80.93 0.021272 23.400
8.77880000 0.021255 -5.226 0.999766 -80.93 0.999766 -80.93 0.021259 23.409
8.77885000 0.021243 -5.237 0.999766 -80.93 0.999766 -80.93 0.021247 23.418
8.77890000 0.021231 -5.248 0.999766 -80.93 0.999766 -80.93 0.021235 23.427
8.77895000 0.021218 -5.260 0.999767 -80.93 0.999767 -80.93 0.021222 23.436
8.77900000 0.021205 -5.271 0.999767 -80.93 0.999767 -80.93 0.021209 23.446
8.77905000 0.021192 -5.283 0.999767 -80.93 0.999767 -80.93 0.021197 23.455
8.77910000 0.021179 -5.295 0.999767 -80.93 0.999767 -80.93 0.021184 23.465
8.77915000 0.021166 -5.307 0.999768 -80.94 0.999768 -80.94 0.021170 23.475
8.77920000 0.021153 -5.319 0.999768 -80.94 0.999768 -80.94 0.021157 23.485
8.77925000 0.021140 -5.331 0.999768 -80.94 0.999768 -80.94 0.021144 23.495
8.77930000 0.021126 -5.344 0.999768 -80.94 0.999768 -80.94 0.021130 23.505
8.77935000 0.021113 -5.356 0.999768 -80.94 0.999768 -80.94 0.021117 23.515
8.77940000 0.021099 -5.369 0.999769 -80.94 0.999769 -80.94 0.021103 23.526
8.77945000 0.021085 -5.382 0.999769 -80.94 0.999769 -80.94 0.021089 23.536
8.77950000 0.021071 -5.395 0.999769 -80.94 0.999769 -80.94 0.021075 23.547
8.77955000 0.021056 -5.408 0.999769 -80.95 0.999769 -80.95 0.021061 23.558
8.77960000 0.021042 -5.422 0.999770 -80.95 0.999770 -80.95 0.021046 23.569