! Sonnet Data File
! From: emgraph Version : 16.52
! From Project: 171117_Xmon_fullysym
! Data is De-embedded 
! Data File Written: 11/26/2017 21:44:45
!< HDATE 11/26/2017 17:24:49
!< MDATE 11/26/2017 17:24:49
!< PARAMS
!< Lj = 11.0
!< Gap = 1.0
!< Pwid = 2000.0
!< Airgap = 6.0
!< Width = 10.0
!< Lj1 = 8.4
!< END PARAMS
# GHZ S MA R 50.90000
8.600000000000001 0.0256425659689 -0.300956911382 0.9996679189247 -79.00994882670 0.9996679189246 -79.00994882698 0.0256434967238 22.291008148295
!< P1 F=8.6 Eeff=(6.44845572 -2.9799e-5) Z0=(50.9087207 1.17006e-4) R=0.0 C=0.0 
!< P2 F=8.6 Eeff=(6.44845572 -2.9799e-5) Z0=(50.9087207 1.17006e-4) R=0.0 C=0.0 
8.600200000000001 0.0256422584915 -0.303432826764 0.9996679266460 -79.01182185640 0.9996679266460 -79.01182185640 0.0256431893624 22.289738652937
8.600400000000000 0.0256419497966 -0.305909446112 0.9996679343731 -79.01369495866 0.9996679343731 -79.01369495866 0.0256428807633 22.288469676865
8.600600000000000 0.0256416398489 -0.308386742386 0.9996679421319 -79.01556813335 0.9996679421319 -79.01556813335 0.0256425709115 22.287201234872
8.600800000000001 0.0256413286458 -0.310864716924 0.9996679499224 -79.01744138063 0.9996679499224 -79.01744138063 0.0256422598047 22.285933328234
8.601000000000001 0.0256410161832 -0.313343372122 0.9996679577449 -79.01931470073 0.9996679577449 -79.01931470073 0.0256419474385 22.284665958663
8.601200000000000 0.0256407024581 -0.315822709590 0.9996679655993 -79.02118809383 0.9996679655993 -79.02118809383 0.0256416338100 22.283399127596
8.601400000000000 0.0256403874661 -0.318302731670 0.9996679734857 -79.02306156019 0.9996679734857 -79.02306156019 0.0256413189148 22.282132836999
8.601600000000001 0.0256400712033 -0.320783440670 0.9996679814043 -79.02493510003 0.9996679814043 -79.02493510003 0.0256410027491 22.280867088429
8.601800000000001 0.0256397536670 -0.323264838151 0.9996679893551 -79.02680871353 0.9996679893551 -79.02680871353 0.0256406853100 22.279601883207
8.602000000000000 0.0256394348520 -0.325746926831 0.9996679973382 -79.02868240097 0.9996679973382 -79.02868240097 0.0256403665926 22.278337223568
8.602200000000000 0.0256391147564 -0.328229707935 0.9996680053538 -79.03055616248 0.9996680053538 -79.03055616248 0.0256400465946 22.277073110450
8.602400000000001 0.0256387933742 -0.330713184732 0.9996680134019 -79.03242999840 0.9996680134019 -79.03242999840 0.0256397253104 22.275809546323
8.602600000000001 0.0256384707036 -0.333197358272 0.9996680214826 -79.03430390884 0.9996680214826 -79.03430390884 0.0256394027379 22.274546532178
8.602800000000000 0.0256381467398 -0.335682231214 0.9996680295961 -79.03617789409 0.9996680295961 -79.03617789409 0.0256390788724 22.273284070034
8.603000000000000 0.0256378214795 -0.338167805378 0.9996680377423 -79.03805195433 0.9996680377423 -79.03805195433 0.0256387537107 22.272022161333
8.603200000000001 0.0256374949182 -0.340654083316 0.9996680459215 -79.03992608983 0.9996680459215 -79.03992608983 0.0256384272482 22.270760808104
8.603400000000001 0.0256371670526 -0.343141066742 0.9996680541335 -79.04180030079 0.9996680541335 -79.04180030079 0.0256380994815 22.269500011985
8.603600000000000 0.0256368378788 -0.345628757932 0.9996680623787 -79.04367458742 0.9996680623787 -79.04367458742 0.0256377704070 22.268239774437
8.603800000000000 0.0256365073924 -0.348117159458 0.9996680706572 -79.04554895000 0.9996680706572 -79.04554895000 0.0256374400200 22.266980097394
8.604000000000001 0.0256361755901 -0.350606272854 0.9996680789688 -79.04742338871 0.9996680789688 -79.04742338871 0.0256371083174 22.265720982547
8.604200000000001 0.0256358424684 -0.353096100391 0.9996680873139 -79.04929790376 0.9996680873139 -79.04929790376 0.0256367752956 22.264462431302
8.604400000000000 0.0256355080218 -0.355586644978 0.9996680956925 -79.05117249548 0.9996680956925 -79.05117249548 0.0256364409491 22.263204446052
8.604600000000001 0.0256351722485 -0.358077907594 0.9996681041045 -79.05304716396 0.9996681041045 -79.05304716396 0.0256361052762 22.261947027828
8.604800000000001 0.0256348351425 -0.360569891768 0.9996681125504 -79.05492190957 0.9996681125504 -79.05492190957 0.0256357682707 22.260690178935
8.605000000000000 0.0256344967013 -0.363062598697 0.9996681210299 -79.05679673243 0.9996681210299 -79.05679673243 0.0256354299304 22.259433900681
8.605200000000000 0.0256341569202 -0.365556031072 0.9996681295434 -79.05867163285 0.9996681295434 -79.05867163285 0.0256350902502 22.258178195279
8.605400000000001 0.0256338157955 -0.368050190935 0.9996681380908 -79.06054661102 0.9996681380908 -79.06054661102 0.0256347492269 22.256923064115
8.605600000000001 0.0256334733226 -0.370545080980 0.9996681466723 -79.06242166723 0.9996681466723 -79.06242166723 0.0256344068554 22.255668509308
8.605800000000000 0.0256331294989 -0.373040702532 0.9996681552879 -79.06429680162 0.9996681552879 -79.06429680162 0.0256340631334 22.254414532158
8.606000000000000 0.0256327843182 -0.375537059039 0.9996681639378 -79.06617201455 0.9996681639378 -79.06617201455 0.0256337180547 22.253161135157
8.606200000000001 0.0256324377781 -0.378034151947 0.9996681726222 -79.06804730617 0.9996681726222 -79.06804730617 0.0256333716168 22.251908319553
8.606400000000001 0.0256320898742 -0.380531983651 0.9996681813409 -79.06992267674 0.9996681813409 -79.06992267674 0.0256330238153 22.250656087274
8.606600000000000 0.0256317406023 -0.383030556603 0.9996681900943 -79.07179812650 0.9996681900943 -79.07179812650 0.0256326746459 22.249404440140
8.606800000000000 0.0256313899579 -0.385529873052 0.9996681988823 -79.07367365572 0.9996681988823 -79.07367365572 0.0256323241045 22.248153380202
8.607000000000001 0.0256310379372 -0.388029935320 0.9996682077051 -79.07554926461 0.9996682077051 -79.07554926461 0.0256319721869 22.246902909071
8.607200000000001 0.0256306845362 -0.390530745731 0.9996682165629 -79.07742495342 0.9996682165629 -79.07742495342 0.0256316188892 22.245653028526
8.607400000000000 0.0256303297507 -0.393032306437 0.9996682254556 -79.07930072239 0.9996682254556 -79.07930072239 0.0256312642073 22.244403740532
8.607600000000000 0.0256299735764 -0.395534619907 0.9996682343833 -79.08117657178 0.9996682343833 -79.08117657178 0.0256309081368 22.243155046940
8.607800000000001 0.0256296160090 -0.398037688624 0.9996682433464 -79.08305250182 0.9996682433464 -79.08305250182 0.0256305506735 22.241906949513
8.608000000000001 0.0256292570441 -0.400541514941 0.9996682523446 -79.08492851280 0.9996682523446 -79.08492851280 0.0256301918129 22.240659450453
8.608200000000000 0.0256288966781 -0.403046100933 0.9996682613784 -79.08680460490 0.9996682613784 -79.08680460490 0.0256298315514 22.239412551202
8.608400000000001 0.0256285349064 -0.405551449080 0.9996682704475 -79.08868077841 0.9996682704475 -79.08868077841 0.0256294698846 22.238166253880
8.608600000000001 0.0256281717249 -0.408057561927 0.9996682795524 -79.09055703358 0.9996682795524 -79.09055703358 0.0256291068080 22.236920560213
8.608800000000000 0.0256278071286 -0.410564441914 0.9996682886930 -79.09243337067 0.9996682886930 -79.09243337067 0.0256287423170 22.235675472506
8.609000000000000 0.0256274411141 -0.413072091198 0.9996682978694 -79.09430978991 0.9996682978694 -79.09430978991 0.0256283764080 22.234430992248
8.609200000000001 0.0256270736768 -0.415580512343 0.9996683070817 -79.09618629156 0.9996683070817 -79.09618629156 0.0256280090764 22.233187121426
8.609400000000001 0.0256267048119 -0.418089707965 0.9996683163302 -79.09806287589 0.9996683163302 -79.09806287589 0.0256276403175 22.231943862174
8.609600000000000 0.0256263345159 -0.420599679863 0.9996683256147 -79.09993954312 0.9996683256147 -79.09993954312 0.0256272701278 22.230701216277
8.609800000000000 0.0256259627833 -0.423110431341 0.9996683349355 -79.10181629357 0.9996683349355 -79.10181629357 0.0256268985017 22.229459185805
8.610000000000001 0.0256255896109 -0.425621964157 0.9996683442927 -79.10369312743 0.9996683442927 -79.10369312743 0.0256265254360 22.228217772549
8.610200000000001 0.0256252149939 -0.428134281036 0.9996683536864 -79.10557004497 0.9996683536864 -79.10557004497 0.0256261509260 22.226976978280
8.610400000000000 0.0256248389274 -0.430647384511 0.9996683631167 -79.10744704649 0.9996683631167 -79.10744704649 0.0256257749668 22.225736805476
8.610600000000000 0.0256244614074 -0.433161277093 0.9996683725836 -79.10932413222 0.9996683725836 -79.10932413222 0.0256253975542 22.224497255785
8.610800000000001 0.0256240824290 -0.435675961305 0.9996683820875 -79.11120130245 0.9996683820875 -79.11120130245 0.0256250186836 22.223258331345
8.611000000000001 0.0256237019886 -0.438191439305 0.9996683916282 -79.11307855739 0.9996683916282 -79.11307855739 0.0256246383511 22.222020033925
8.611200000000000 0.0256233200804 -0.440707714310 0.9996684012060 -79.11495589738 0.9996684012060 -79.11495589738 0.0256242565512 22.220782365878
8.611400000000000 0.0256229367011 -0.443224788089 0.9996684108209 -79.11683332261 0.9996684108209 -79.11683332261 0.0256238732804 22.219545328774
8.611600000000001 0.0256225518460 -0.445742663368 0.9996684204730 -79.11871083337 0.9996684204730 -79.11871083337 0.0256234885340 22.218308924859
8.611800000000001 0.0256221655096 -0.448261343229 0.9996684301626 -79.12058842996 0.9996684301626 -79.12058842996 0.0256231023067 22.217073156248
8.612000000000000 0.0256217776879 -0.450780829800 0.9996684398897 -79.12246611263 0.9996684398897 -79.12246611263 0.0256227145942 22.215838025025
8.612200000000001 0.0256213883763 -0.453301125717 0.9996684496543 -79.12434388165 0.9996684496543 -79.12434388165 0.0256223253921 22.214603533148
8.612400000000001 0.0256209975700 -0.455822233715 0.9996684594568 -79.12622173729 0.9996684594568 -79.12622173729 0.0256219346957 22.213369682587
8.612600000000000 0.0256206052653 -0.458344155892 0.9996684692970 -79.12809967979 0.9996684692970 -79.12809967979 0.0256215425010 22.212136475258
8.612800000000000 0.0256202114562 -0.460866895493 0.9996684791751 -79.12997770948 0.9996684791751 -79.12997770948 0.0256211488022 22.210903913657
8.613000000000001 0.0256198161393 -0.463390454517 0.9996684890914 -79.13185582657 0.9996684890914 -79.13185582657 0.0256207535959 22.209671999346
8.613200000000001 0.0256194193086 -0.465914836350 0.9996684990458 -79.13373403141 0.9996684990458 -79.13373403141 0.0256203568760 22.208440734965
8.613400000000000 0.0256190209599 -0.468440043270 0.9996685090386 -79.13561232424 0.9996685090386 -79.13561232424 0.0256199586384 22.207210122361
8.613600000000000 0.0256186210891 -0.470966077528 0.9996685190697 -79.13749070532 0.9996685190697 -79.13749070532 0.0256195588789 22.205980163537
8.613800000000001 0.0256182196907 -0.473492942328 0.9996685291394 -79.13936917495 0.9996685291394 -79.13936917495 0.0256191575921 22.204750860786
8.614000000000001 0.0256178167604 -0.476020640032 0.9996685392477 -79.14124773339 0.9996685392477 -79.14124773339 0.0256187547738 22.203522215998
8.614200000000000 0.0256174122930 -0.478549173640 0.9996685493949 -79.14312638096 0.9996685493949 -79.14312638096 0.0256183504185 22.202294231535
8.614400000000000 0.0256170062834 -0.481078545753 0.9996685595809 -79.14500511794 0.9996685595809 -79.14500511794 0.0256179445214 22.201066909755
8.614600000000001 0.0256165987273 -0.483608759113 0.9996685698059 -79.14688394459 0.9996685698059 -79.14688394459 0.0256175370779 22.199840252446
8.614800000000001 0.0256161896202 -0.486139816073 0.9996685800701 -79.14876286117 0.9996685800701 -79.14876286117 0.0256171280839 22.198614261623
8.615000000000000 0.0256157789562 -0.488671719915 0.9996685903735 -79.15064186803 0.9996685903735 -79.15064186803 0.0256167175331 22.197388940011
8.615200000000000 0.0256153667319 -0.491204472640 0.9996686007163 -79.15252096537 0.9996686007163 -79.15252096537 0.0256163054223 22.196164289123
8.615400000000001 0.0256149529406 -0.493738077964 0.9996686110987 -79.15440015359 0.9996686110987 -79.15440015359 0.0256158917448 22.194940311787
8.615600000000001 0.0256145375783 -0.496272538168 0.9996686215206 -79.15627943291 0.9996686215206 -79.15627943291 0.0256154764965 22.193717009960
8.615800000000000 0.0256141206401 -0.498807855869 0.9996686319823 -79.15815880363 0.9996686319823 -79.15815880363 0.0256150596727 22.192494385779
8.616000000000000 0.0256137021208 -0.501344034097 0.9996686424838 -79.16003826605 0.9996686424838 -79.16003826605 0.0256146412680 22.191272441568
8.616200000000001 0.0256132820153 -0.503881075777 0.9996686530254 -79.16191782047 0.9996686530254 -79.16191782047 0.0256142212773 22.190051179564
8.616400000000001 0.0256128603196 -0.506418983048 0.9996686636070 -79.16379746711 0.9996686636070 -79.16379746711 0.0256137996969 22.188830601525
8.616600000000000 0.0256124370264 -0.508957759926 0.9996686742289 -79.16567720643 0.9996686742289 -79.16567720643 0.0256133765192 22.187610710829
8.616800000000001 0.0256120121331 -0.511497408060 0.9996686848912 -79.16755703856 0.9996686848912 -79.16755703856 0.0256129517416 22.186391508607
8.617000000000001 0.0256115856331 -0.514037931115 0.9996686955939 -79.16943696389 0.9996686955939 -79.16943696389 0.0256125253576 22.185172997670
8.617200000000000 0.0256111575219 -0.516579331675 0.9996687063374 -79.17131698270 0.9996687063374 -79.17131698270 0.0256120973627 22.183955180072
8.617400000000000 0.0256107277941 -0.519121612628 0.9996687171215 -79.17319709528 0.9996687171215 -79.17319709528 0.0256116677515 22.182738058292
8.617600000000001 0.0256102964448 -0.521664776654 0.9996687279465 -79.17507730194 0.9996687279465 -79.17507730194 0.0256112365190 22.181521634675
8.617800000000001 0.0256098634682 -0.524208827204 0.9996687388125 -79.17695760301 0.9996687388125 -79.17695760301 0.0256108036596 22.180305911465
8.618000000000000 0.0256094288595 -0.526753767004 0.9996687497197 -79.17883799877 0.9996687497197 -79.17883799877 0.0256103691684 22.179090890923
8.618200000000000 0.0256089926142 -0.529299598337 0.9996687606681 -79.18071848949 0.9996687606681 -79.18071848949 0.0256099330408 22.177876575314
8.618400000000001 0.0256085547261 -0.531846324849 0.9996687716579 -79.18259907554 0.9996687716579 -79.18259907554 0.0256094952707 22.176662967202
8.618600000000001 0.0256081151895 -0.534393949866 0.9996687826893 -79.18447975724 0.9996687826893 -79.18447975724 0.0256090558524 22.175450068946
8.618800000000000 0.0256076740006 -0.536942475310 0.9996687937623 -79.18636053482 0.9996687937623 -79.18636053482 0.0256086147821 22.174237882540
8.619000000000000 0.0256072311528 -0.539491904904 0.9996688048770 -79.18824140866 0.9996688048770 -79.18824140866 0.0256081720533 22.173026410825
8.619200000000001 0.0256067866415 -0.542042241435 0.9996688160338 -79.19012237905 0.9996688160338 -79.19012237905 0.0256077276612 22.171815655831
8.619400000000001 0.0256063404616 -0.544593487566 0.9996688272325 -79.19200344626 0.9996688272325 -79.19200344626 0.0256072816008 22.170605619921
8.619600000000000 0.0256058926071 -0.547145646738 0.9996688384734 -79.19388461068 0.9996688384734 -79.19388461068 0.0256068338661 22.169396305766
8.619800000000000 0.0256054430721 -0.549698722374 0.9996688497567 -79.19576587262 0.9996688497567 -79.19576587262 0.0256063844512 22.168187715863
8.620000000000001 0.0256049918514 -0.552252717232 0.9996688610824 -79.19764723241 0.9996688610824 -79.19764723241 0.0256059333508 22.166979852682
8.620200000000001 0.0256045389405 -0.554807634004 0.9996688724508 -79.19952869030 0.9996688724508 -79.19952869030 0.0256054805606 22.165772718100
8.620400000000000 0.0256040843337 -0.557363475665 0.9996688838618 -79.20141024662 0.9996688838618 -79.20141024663 0.0256050260749 22.164566314888
8.620600000000001 0.0256036280244 -0.559920246149 0.9996688953157 -79.20329190178 0.9996688953157 -79.20329190178 0.0256045698869 22.163360645817
8.620800000000001 0.0256031700084 -0.562477947711 0.9996689068126 -79.20517365601 0.9996689068126 -79.20517365601 0.0256041119924 22.162155712906
8.621000000000000 0.0256027102791 -0.565036584027 0.9996689183526 -79.20705550970 0.9996689183526 -79.20705550970 0.0256036523851 22.160951518987
8.621200000000000 0.0256022488320 -0.567596157874 0.9996689299359 -79.20893746311 0.9996689299359 -79.20893746311 0.0256031910602 22.159748066038
8.621400000000001 0.0256017856606 -0.570156672567 0.9996689415626 -79.21081951664 0.9996689415626 -79.21081951664 0.0256027280113 22.158545357195
8.621600000000001 0.0256013207592 -0.572718131596 0.9996689532329 -79.21270167060 0.9996689532329 -79.21270167060 0.0256022632328 22.157343394696
8.621800000000000 0.0256008541223 -0.575280537925 0.9996689649469 -79.21458392533 0.9996689649469 -79.21458392533 0.0256017967189 22.156142181278
8.622000000000000 0.0256003857453 -0.577843894128 0.9996689767047 -79.21646628108 0.9996689767047 -79.21646628108 0.0256013284655 22.154941718826
8.622200000000001 0.0255999156210 -0.580408204297 0.9996689885064 -79.21834873830 0.9996689885064 -79.21834873830 0.0256008584649 22.153742010711
8.622400000000001 0.0255994437448 -0.582973471036 0.9996690003523 -79.22023129725 0.9996690003523 -79.22023129725 0.0256003867127 22.152543058932
8.622600000000000 0.0255989701099 -0.585539698230 0.9996690122425 -79.22211395831 0.9996690122425 -79.22211395831 0.0255999132022 22.151344866372
8.622800000000000 0.0255984947113 -0.588106888438 0.9996690241770 -79.22399672180 0.9996690241770 -79.22399672180 0.0255994379284 22.150147435556
8.623000000000001 0.0255980175427 -0.590675045618 0.9996690361561 -79.22587958808 0.9996690361561 -79.22587958808 0.0255989608848 22.148950769042
8.623200000000001 0.0255975385991 -0.593244172151 0.9996690481798 -79.22776255744 0.9996690481798 -79.22776255744 0.0255984820666 22.147754869428
8.623400000000000 0.0255970578735 -0.595814272303 0.9996690602484 -79.22964563029 0.9996690602484 -79.22964563029 0.0255980014667 22.146559739423
8.623600000000000 0.0255965753614 -0.598385348580 0.9996690723620 -79.23152880690 0.9996690723620 -79.23152880690 0.0255975190805 22.145365381352
8.623800000000001 0.0255960910552 -0.600957405133 0.9996690845207 -79.23341208771 0.9996690845207 -79.23341208771 0.0255970349007 22.144171798385
8.624000000000001 0.0255956049504 -0.603530444605 0.9996690967247 -79.23529547300 0.9996690967247 -79.23529547300 0.0255965489224 22.142978992767
8.624200000000000 0.0255951170404 -0.606104470473 0.9996691089740 -79.23717896313 0.9996691089740 -79.23717896313 0.0255960611395 22.141786967433
8.624400000000001 0.0255946273192 -0.608679486420 0.9996691212690 -79.23906255848 0.9996691212690 -79.23906255848 0.0255955715456 22.140595724964
8.624600000000001 0.0255941357804 -0.611255496055 0.9996691336097 -79.24094625941 0.9996691336097 -79.24094625941 0.0255950801344 22.139405268205
8.624800000000000 0.0255936424196 -0.613832501731 0.9996691459962 -79.24283006618 0.9996691459962 -79.24283006618 0.0255945869015 22.138215599218
8.625000000000000 0.0255931472285 -0.616410508055 0.9996691584288 -79.24471397928 0.9996691584288 -79.24471397928 0.0255940918387 22.137026721755
8.625200000000001 0.0255926502032 -0.618989517485 0.9996691709075 -79.24659799894 0.9996691709075 -79.24659799894 0.0255935949420 22.135838637448
8.625400000000001 0.0255921513364 -0.621569533811 0.9996691834325 -79.24848212559 0.9996691834325 -79.24848212559 0.0255930962042 22.134651349849
8.625600000000000 0.0255916506214 -0.624150561078 0.9996691960040 -79.25036635961 0.9996691960040 -79.25036635961 0.0255925956185 22.133464861584
8.625800000000000 0.0255911480528 -0.626732602209 0.9996692086221 -79.25225070133 0.9996692086221 -79.25225070133 0.0255920931795 22.132279175321
8.626000000000001 0.0255906436242 -0.629315660900 0.9996692212871 -79.25413515113 0.9996692212871 -79.25413515113 0.0255915888808 22.131094293841
8.626200000000001 0.0255901373297 -0.631899740271 0.9996692339988 -79.25601970934 0.9996692339988 -79.25601970934 0.0255910827167 22.129910219959
8.626400000000000 0.0255896291628 -0.634484844190 0.9996692467577 -79.25790437636 0.9996692467577 -79.25790437636 0.0255905746804 22.128726956457
8.626600000000000 0.0255891191169 -0.637070976446 0.9996692595639 -79.25978915256 0.9996692595639 -79.25978915256 0.0255900647655 22.127544506185
8.626800000000001 0.0255886071856 -0.639658140465 0.9996692724174 -79.26167403832 0.9996692724174 -79.26167403832 0.0255895529655 22.126362872165
8.627000000000001 0.0255880933639 -0.642246339251 0.9996692853185 -79.26355903395 0.9996692853185 -79.26355903395 0.0255890392755 22.125182056678
8.627200000000000 0.0255875776436 -0.644835577210 0.9996692982673 -79.26544413991 0.9996692982673 -79.26544413991 0.0255885236872 22.124002063396
8.627400000000000 0.0255870600197 -0.647425857453 0.9996693112640 -79.26732935651 0.9996693112640 -79.26732935651 0.0255880061956 22.122822894423
8.627600000000001 0.0255865404850 -0.650017183770 0.9996693243087 -79.26921468416 0.9996693243087 -79.26921468416 0.0255874867936 22.121644553155
8.627800000000001 0.0255860190325 -0.652609560146 0.9996693374015 -79.27110012327 0.9996693374015 -79.27110012327 0.0255869654742 22.120467042761
8.628000000000000 0.0255854956578 -0.655202989345 0.9996693505427 -79.27298567412 0.9996693505427 -79.27298567412 0.0255864422329 22.119290365059
8.628200000000001 0.0255849703520 -0.657797475985 0.9996693637324 -79.27487133720 0.9996693637324 -79.27487133720 0.0255859170609 22.118114524238
8.628400000000001 0.0255844431100 -0.660393023259 0.9996693769708 -79.27675711283 0.9996693769708 -79.27675711283 0.0255853899531 22.116939522436
8.628600000000000 0.0255839139246 -0.662989635161 0.9996693902580 -79.27864300144 0.9996693902580 -79.27864300144 0.0255848609021 22.115765363040
8.628800000000000 0.0255833827892 -0.665587315425 0.9996694035942 -79.28052900339 0.9996694035942 -79.28052900339 0.0255843299016 22.114592048793
8.629000000000001 0.0255828496976 -0.668186067493 0.9996694169796 -79.28241511907 0.9996694169796 -79.28241511907 0.0255837969452 22.113419582771
8.629200000000001 0.0255823146432 -0.670785895209 0.9996694304143 -79.28430134886 0.9996694304143 -79.28430134886 0.0255832620263 22.112247967753
8.629400000000000 0.0255817776185 -0.673386802635 0.9996694438984 -79.28618769319 0.9996694438984 -79.28618769319 0.0255827251376 22.111077207169
8.629600000000000 0.0255812386173 -0.675988793402 0.9996694574322 -79.28807415244 0.9996694574322 -79.28807415244 0.0255821862727 22.109907303861
8.629800000000001 0.0255806976323 -0.678591871722 0.9996694710159 -79.28996072703 0.9996694710159 -79.28996072703 0.0255816454244 22.108738260956
8.630000000000001 0.0255801546578 -0.681196040644 0.9996694846495 -79.29184741730 0.9996694846495 -79.29184741730 0.0255811025869 22.107570081284
8.630200000000000 0.0255796096865 -0.683801304504 0.9996694983333 -79.29373422367 0.9996694983333 -79.29373422367 0.0255805577529 22.106402767872
8.630400000000000 0.0255790627112 -0.686407666963 0.9996695120674 -79.29562114656 0.9996695120674 -79.29562114656 0.0255800109154 22.105236324274
8.630600000000001 0.0255785137250 -0.689015132368 0.9996695258520 -79.29750818639 0.9996695258520 -79.29750818639 0.0255794620673 22.104070753314
8.630800000000001 0.0255779627208 -0.691623704659 0.9996695396873 -79.29939534356 0.9996695396873 -79.29939534356 0.0255789112017 22.102906058082
8.631000000000000 0.0255774096923 -0.694233387228 0.9996695535734 -79.30128261845 0.9996695535734 -79.30128261845 0.0255783583121 22.101742241830
8.631200000000000 0.0255768546326 -0.696844184152 0.9996695675105 -79.30317001147 0.9996695675105 -79.30317001147 0.0255778033916 22.100579307418
8.631400000000001 0.0255762975335 -0.699456099828 0.9996695814988 -79.30505752309 0.9996695814988 -79.30505752309 0.0255772464322 22.099417258619
8.631600000000001 0.0255757383893 -0.702069137830 0.9996695955385 -79.30694515366 0.9996695955385 -79.30694515366 0.0255766874280 22.098256097928
8.631800000000000 0.0255751771923 -0.704683302233 0.9996696096296 -79.30883290361 0.9996696096296 -79.30883290361 0.0255761263714 22.097095828971
8.632000000000000 0.0255746139354 -0.707298597233 0.9996696237725 -79.31072077337 0.9996696237725 -79.31072077337 0.0255755632553 22.095936454720
8.632200000000001 0.0255740486117 -0.709915026660 0.9996696379673 -79.31260876336 0.9996696379673 -79.31260876336 0.0255749980727 22.094777978520
8.632400000000001 0.0255734812132 -0.712532595019 0.9996696522142 -79.31449687401 0.9996696522142 -79.31449687401 0.0255744308158 22.093620403773
8.632600000000000 0.0255729117341 -0.715151305636 0.9996696665132 -79.31638510570 0.9996696665132 -79.31638510570 0.0255738614787 22.092463733303
8.632800000000001 0.0255723401652 -0.717771163656 0.9996696808647 -79.31827345895 0.9996696808647 -79.31827345895 0.0255732900522 22.091307971137
8.633000000000001 0.0255717665011 -0.720392172238 0.9996696952688 -79.32016193408 0.9996696952688 -79.32016193408 0.0255727165308 22.090153119847
8.633200000000000 0.0255711907339 -0.723014335952 0.9996697097257 -79.32205053155 0.9996697097257 -79.32205053155 0.0255721409067 22.088999182692
8.633400000000000 0.0255706128552 -0.725637659329 0.9996697242355 -79.32393925187 0.9996697242355 -79.32393925187 0.0255715631715 22.087846163820
8.633600000000001 0.0255700328591 -0.728262145888 0.9996697387984 -79.32582809537 0.9996697387985 -79.32582809537 0.0255709833193 22.086694065670
8.633800000000001 0.0255694507374 -0.730887799998 0.9996697534147 -79.32771706253 0.9996697534147 -79.32771706253 0.0255704013420 22.085542892165
8.634000000000000 0.0255688664833 -0.733514625938 0.9996697680845 -79.32960615377 0.9996697680845 -79.32960615377 0.0255698172326 22.084392646111
8.634200000000000 0.0255682800868 -0.736142628949 0.9996697828079 -79.33149536965 0.9996697828079 -79.33149536965 0.0255692309812 22.083243332210
8.634400000000001 0.0255676915442 -0.738771811619 0.9996697975853 -79.33338471040 0.9996697975853 -79.33338471040 0.0255686425841 22.082094952013
8.634600000000001 0.0255671008458 -0.741402179009 0.9996698124167 -79.33527417660 0.9996698124167 -79.33527417660 0.0255680520316 22.080947510158
8.634800000000000 0.0255665079834 -0.744033735866 0.9996698273024 -79.33716376871 0.9996698273024 -79.33716376871 0.0255674593156 22.079801010050
8.635000000000000 0.0255659129519 -0.746666485272 0.9996698422424 -79.33905348704 0.9996698422424 -79.33905348704 0.0255668644309 22.078655454197
8.635200000000001 0.0255653157403 -0.749300433427 0.9996698572372 -79.34094333225 0.9996698572372 -79.34094333225 0.0255662673664 22.077510847379
8.635400000000001 0.0255647163431 -0.751935583161 0.9996698722867 -79.34283330463 0.9996698722867 -79.34283330463 0.0255656681168 22.076367192349
8.635600000000000 0.0255641147521 -0.754571939679 0.9996698873913 -79.34472340470 0.9996698873913 -79.34472340470 0.0255650666737 22.075224492481
8.635800000000000 0.0255635109593 -0.757209506901 0.9996699025510 -79.34661363290 0.9996699025510 -79.34661363290 0.0255644630294 22.074082751773
8.636000000000001 0.0255629049568 -0.759848289645 0.9996699177661 -79.34850398970 0.9996699177661 -79.34850398970 0.0255638571757 22.072941973584
8.636200000000001 0.0255622967375 -0.762488291953 0.9996699330368 -79.35039447553 0.9996699330368 -79.35039447553 0.0255632491057 22.071802161164
8.636400000000000 0.0255616862921 -0.765129519064 0.9996699483633 -79.35228509092 0.9996699483633 -79.35228509092 0.0255626388099 22.070663318691
8.636600000000001 0.0255610736138 -0.767771974808 0.9996699637458 -79.35417583628 0.9996699637458 -79.35417583628 0.0255620262817 22.069525449243
8.636800000000001 0.0255604586947 -0.770415663655 0.9996699791844 -79.35606671207 0.9996699791844 -79.35606671207 0.0255614115132 22.068388556530
8.637000000000000 0.0255598415257 -0.773060590796 0.9996699946794 -79.35795771883 0.9996699946794 -79.35795771883 0.0255607944951 22.067252644581
8.637200000000000 0.0255592220996 -0.775706760455 0.9996700102310 -79.35984885697 0.9996700102310 -79.35984885697 0.0255601752204 22.066117716534
8.637400000000001 0.0255586004081 -0.778354177210 0.9996700258393 -79.36174012699 0.9996700258393 -79.36174012699 0.0255595536807 22.064983776386
8.637600000000001 0.0255579764434 -0.781002845496 0.9996700415046 -79.36363152934 0.9996700415046 -79.36363152934 0.0255589298682 22.063850827507
8.637800000000000 0.0255573501966 -0.783652770417 0.9996700572271 -79.36552306454 0.9996700572271 -79.36552306454 0.0255583037741 22.062718874032
8.638000000000000 0.0255567216601 -0.786303956085 0.9996700730069 -79.36741473305 0.9996700730069 -79.36741473305 0.0255576753907 22.061587919479
8.638200000000001 0.0255560908258 -0.788956407422 0.9996700888443 -79.36930653533 0.9996700888443 -79.36930653533 0.0255570447100 22.060457967267
8.638400000000001 0.0255554576849 -0.791610129358 0.9996701047394 -79.37119847191 0.9996701047394 -79.37119847191 0.0255564117231 22.059329021574
8.638600000000000 0.0255548222286 -0.794265126796 0.9996701206926 -79.37309054330 0.9996701206926 -79.37309054330 0.0255557764212 22.058201086295
8.638800000000000 0.0255541844503 -0.796921403565 0.9996701367039 -79.37498274989 0.9996701367039 -79.37498274989 0.0255551387978 22.057074164534
8.639000000000001 0.0255535443395 -0.799578965445 0.9996701527736 -79.37687509229 0.9996701527736 -79.37687509229 0.0255544988424 22.055948261030
8.639200000000001 0.0255529018896 -0.802237816556 0.9996701689019 -79.37876757090 0.9996701689019 -79.37876757090 0.0255538565482 22.054823378752
8.639400000000000 0.0255522570906 -0.804897962267 0.9996701850890 -79.38066018629 0.9996701850890 -79.38066018629 0.0255532119055 22.053699522188
8.639600000000000 0.0255516099344 -0.807559407436 0.9996702013351 -79.38255293895 0.9996702013351 -79.38255293895 0.0255525649060 22.052576695019
8.639800000000001 0.0255509604129 -0.810222156419 0.9996702176405 -79.38444582934 0.9996702176405 -79.38444582934 0.0255519155417 22.051454901030
8.640000000000001 0.0255503085174 -0.812886214396 0.9996702340053 -79.38633885800 0.9996702340053 -79.38633885800 0.0255512638037 22.050334144151
8.640200000000000 0.0255496542383 -0.815551586536 0.9996702504297 -79.38823202546 0.9996702504297 -79.38823202546 0.0255506096828 22.049214428733