! Sonnet Data File
! From: emgraph Version : 16.52
! From Emgraph Data: 171117_Xmon_fullysym
! Data File Written: 11/17/2017 17:30:37
!< HDATE 11/17/2017 15:37:35
!< MDATE 11/17/2017 15:38:17
!< PARAMS
!< Lj = 11.0
!< Gap = 6.0
!< Pwid = 2000.0
!< Width = 10.0
!< END PARAMS
# GHZ S MA R 50.90000
8.805000000000000 0.0375258701028 -177.3630112027 0.9985492576624 -84.26792101993 0.9985492576594 -84.26792101970 0.0374631810296 -173.4535090778
!< P1 F=8.805 Eeff=(6.44676284 -2.9786e-5) Z0=(51.7990067 1.19063e-4) R=0.0 C=0.0 
!< P2 F=8.805 Eeff=(6.44676284 -2.9786e-5) Z0=(51.7990067 1.19063e-4) R=0.0 C=0.0 
8.805002000000000 0.0376060777856 -177.3629032074 0.9985443754793 -84.27254031773 0.9985443754767 -84.27254031774 0.0375433651378 -173.4637024877
8.805004000000000 0.0376864835273 -177.3628308909 0.9985394627319 -84.27717102955 0.9985394627358 -84.27717102955 0.0376237472439 -173.4739147317
8.805006000000001 0.0377670938348 -177.3627819855 0.9985345286565 -84.28181346711 0.9985345286606 -84.28181346711 0.0377043337638 -173.4841325791
8.805008000000001 0.0378479063120 -177.3627567010 0.9985295732135 -84.28646749264 0.9985295732089 -84.28646749264 0.0377851222919 -173.4943558880
8.805010000000001 0.0379289245666 -177.3627549999 0.9985245961552 -84.29113331331 0.9985245961506 -84.29113331331 0.0378661164387 -173.5045850014
8.805012000000001 0.0380101473135 -177.3627769101 0.9985195974921 -84.29581085551 0.9985195974967 -84.29581085551 0.0379473149193 -173.5148197331
8.805014000000000 0.0380915772078 -177.3628223175 0.9985145770864 -84.30050027195 0.9985145770807 -84.30050027195 0.0380287203951 -173.5250602952
8.805016000000000 0.0381732129875 -177.3628914715 0.9985095347993 -84.30520148983 0.9985095347934 -84.30520148984 0.0381103315929 -173.5353066830
8.805018000000000 0.0382550567639 -177.3629841170 0.9985044706203 -84.30991463102 0.9985044706280 -84.30991463102 0.0381921506388 -173.5455588477
8.805020000000001 0.0383371095584 -177.3631005579 0.9984993842329 -84.31463975355 0.9984993842331 -84.31463975354 0.0382741785380 -173.5558172208
8.805022000000001 0.0384193712449 -177.3632407857 0.9984942755990 -84.31937685037 0.9984942755971 -84.31937685037 0.0383564151671 -173.5660816854
8.805024000000001 0.0385018429076 -177.3634049944 0.9984891444695 -84.32412598338 0.9984891444752 -84.32412598337 0.0384388616006 -173.5763525117
8.805026000000000 0.0385845244012 -177.3635924662 0.9984839912834 -84.32888714610 0.9984839912766 -84.32888714610 0.0385215177338 -173.5866289554
8.805028000000000 0.0386674193802 -177.3638041660 0.9984788151166 -84.33366054608 0.9984788151170 -84.33366054608 0.0386043871696 -173.5969123164
8.805030000000000 0.0387505250605 -177.3640394136 0.9984736165441 -84.33844602535 0.9984736165429 -84.33844602535 0.0386874671625 -173.6072015641
8.805032000000001 0.0388338455916 -177.3642987431 0.9984683948997 -84.34324382090 0.9984683948963 -84.34324382090 0.0387707618341 -173.6174976707
8.805034000000001 0.0389173788330 -177.3645820105 0.9984631503568 -84.34805381042 0.9984631503561 -84.34805381042 0.0388542690532 -173.6278001720
8.805036000000001 0.0390011280163 -177.3648890540 0.9984578827756 -84.35287617986 0.9984578827765 -84.35287617987 0.0389379920617 -173.6381092493
8.805038000000000 0.0390850921728 -177.3652203151 0.9984525918600 -84.35771087278 0.9984525918637 -84.35771087278 0.0390219298679 -173.6484251715
8.805040000000000 0.0391692746522 -177.3655753046 0.9984472776865 -84.36255808268 0.9984472776835 -84.36255808267 0.0391060858494 -173.6587478077
8.805042000000000 0.0392536724548 -177.3659544886 0.9984419400632 -84.36741763654 0.9984419400662 -84.36741763655 0.0391904569835 -173.6690771828
8.805044000000001 0.0393382887969 -177.3663578462 0.9984365787543 -84.37228971910 0.9984365787461 -84.37228971910 0.0392750464876 -173.6794136457
8.805046000000001 0.0394231239709 -177.3667850333 0.9984311939227 -84.37717434814 0.9984311939230 -84.37717434814 0.0393598546758 -173.6897567776
8.805048000000001 0.0395081803751 -177.3672365182 0.9984257850468 -84.38207166032 0.9984257850470 -84.38207166032 0.0394448839211 -173.7001073129
8.805050000000001 0.0395934563652 -177.3677121972 0.9984203522402 -84.38698156173 0.9984203522479 -84.38698156173 0.0395301325873 -173.7104648771
8.805052000000000 0.0396789545177 -177.3682120803 0.9984148952840 -84.39190420035 0.9984148952914 -84.39190420036 0.0396156032515 -173.7208297470
8.805054000000000 0.0397646757137 -177.3687363294 0.9984094139566 -84.39683962653 0.9984094139496 -84.39683962653 0.0397012967866 -173.7312021379
8.805056000000000 0.0398506184051 -177.3692848160 0.9984039083815 -84.40178775194 0.9984039083923 -84.40178775194 0.0397872116547 -173.7415816220
8.805058000000001 0.0399367869072 -177.3698574222 0.9983983783256 -84.40674882464 0.9983983783278 -84.40674882464 0.0398733521780 -173.7519686031
8.805060000000001 0.0400231814225 -177.3704544416 0.9983928235143 -84.41172285574 0.9983928235158 -84.41172285574 0.0399597185449 -173.7623632909
8.805062000000001 0.0401098002904 -177.3710760315 0.9983872438779 -84.41670974976 0.9983872438724 -84.41670974976 0.0400463090875 -173.7727656185
8.805064000000000 0.0401966472310 -177.3717219038 0.9983816393369 -84.42170972104 0.9983816393338 -84.42170972104 0.0401331275437 -173.7831756384
8.805066000000000 0.0402837207882 -177.3723921663 0.9983760098435 -84.42672268597 0.9983760098463 -84.42672268597 0.0402201724532 -173.7935932460
8.805068000000000 0.0403710236660 -177.3730871519 0.9983703549431 -84.43174879910 0.9983703549458 -84.43174879910 0.0403074465031 -173.8040190343
8.805070000000001 0.0404585561505 -177.3738065398 0.9983646747840 -84.43678807779 0.9983646747831 -84.43678807779 0.0403949499986 -173.8144526517
8.805072000000001 0.0405463174961 -177.3745503507 0.9983589693357 -84.44184047942 0.9983589693355 -84.44184047942 0.0404826821949 -173.8248939684
8.805074000000001 0.0406343120620 -177.3753191244 0.9983532378972 -84.44690625303 0.9983532379013 -84.44690625303 0.0405706474236 -173.8353439497
8.805076000000000 0.0407225376967 -177.3761124465 0.9983474808273 -84.45198527635 0.9983474808250 -84.45198527635 0.0406588435571 -173.8458019050
8.805078000000000 0.0408109964951 -177.3769305079 0.9983416978050 -84.45707766933 0.9983416978081 -84.45707766933 0.0407472726819 -173.8562681654
8.805080000000000 0.0408996891693 -177.3777730539 0.9983358889075 -84.46218347365 0.9983358888963 -84.46218347365 0.0408359355257 -173.8667425395
8.805082000000001 0.0409886184040 -177.3786406395 0.9983300535185 -84.46730284223 0.9983300535153 -84.46730284223 0.0409248347450 -173.8772257555
8.805084000000001 0.0410777823678 -177.3795331744 0.9983241917462 -84.47243567041 0.9983241917498 -84.47243567040 0.0410139685146 -173.8877174987
8.805086000000001 0.0411671842190 -177.3804502365 0.9983183036441 -84.47758214064 0.9983183036442 -84.47758214064 0.0411033400184 -173.8982176397
8.805088000000001 0.0412568247487 -177.3813923595 0.9983123887196 -84.48274229726 0.9983123887180 -84.48274229726 0.0411929500199 -173.9087267194
8.805090000000000 0.0413467021445 -177.3823593575 0.9983064471476 -84.48791603691 0.9983064471567 -84.48791603691 0.0412827967183 -173.9192442849
8.805092000000000 0.0414368189753 -177.3833515457 0.9983004784851 -84.49310350645 0.9983004784796 -84.49310350646 0.0413728826668 -173.9297709184
8.805094000000000 0.0415271775713 -177.3843684715 0.9982944828580 -84.49830484093 0.9982944828585 -84.49830484093 0.0414632102236 -173.9403062880
8.805096000000001 0.0416177770377 -177.3854106066 0.9982884599115 -84.50351998806 0.9982884599079 -84.50351998807 0.0415537784690 -173.9508507541
8.805098000000001 0.0417086201125 -177.3864778045 0.9982824095259 -84.50874910555 0.9982824095274 -84.50874910555 0.0416445901515 -173.9614043692
8.805100000000001 0.0417997065258 -177.3875703335 0.9982763314548 -84.51399217747 0.9982763314510 -84.51399217747 0.0417356449881 -173.9719673394
8.805102000000000 0.0418910374005 -177.3886880623 0.9982702256612 -84.51924926881 0.9982702256619 -84.51924926880 0.0418269441112 -173.9825395607
8.805104000000000 0.0419826124372 -177.3898309328 0.9982640921373 -84.52452036274 0.9982640921262 -84.52452036274 0.0419184872258 -173.9931209192
8.805106000000000 0.0420744349900 -177.3909992228 0.9982579304169 -84.52980565131 0.9982579304207 -84.52980565131 0.0420102776742 -174.0037119185
8.805108000000001 0.0421665060832 -177.3921927900 0.9982517404766 -84.53510519388 0.9982517404860 -84.53510519389 0.0421023164900 -174.0143125072
8.805110000000001 0.0422588250768 -177.3934115117 0.9982455223753 -84.54041895425 0.9982455223693 -84.54041895425 0.0421946030412 -174.0249224500
8.805112000000001 0.0423513928963 -177.3946561514 0.9982392754268 -84.54574698389 0.9982392754217 -84.54574698389 0.0422871382141 -174.0355424936
8.805114000000000 0.0424442112410 -177.3959259908 0.9982329999927 -84.55108938232 0.9982330000004 -84.55108938233 0.0423799237499 -174.0461720342
8.805116000000000 0.0425372811816 -177.3972215146 0.9982266955823 -84.55644621005 0.9982266955812 -84.55644621004 0.0424729606938 -174.0568116478
8.805118000000000 0.0426306043238 -177.3985423737 0.9982203622915 -84.56181756031 0.9982203622869 -84.56181756031 0.0425662506744 -174.0674610455
8.805120000000001 0.0427241797051 -177.3998891432 0.9982139996763 -84.56720337669 0.9982139996671 -84.56720337669 0.0426597926978 -174.0781206529
8.805122000000001 0.0428180120116 -177.4012615787 0.9982076075770 -84.57260392900 0.9982076075934 -84.57260392899 0.0427535914686 -174.0887905856
8.805124000000001 0.0429120971411 -177.4026596563 0.9982011861744 -84.57801898207 0.9982011861756 -84.57801898208 0.0428476428845 -174.0994704445
8.805126000000001 0.0430064391998 -177.4040834952 0.9981947350710 -84.58344877155 0.9981947350684 -84.58344877155 0.0429419510495 -174.1101606215
8.805128000000000 0.0431010406398 -177.4055331249 0.9981882540310 -84.58889343835 0.9981882540283 -84.58889343835 0.0430365184169 -174.1208613319
8.805130000000000 0.0431959023837 -177.4070087338 0.9981817427860 -84.59435303521 0.9981817427836 -84.59435303521 0.0431313459014 -174.1315727925
8.805132000000000 0.0432910207524 -177.4085103072 0.9981752014820 -84.59982735124 0.9981752014824 -84.59982735124 0.0432264298243 -174.1422945637
8.805134000000001 0.0433864018125 -177.4100376804 0.9981686298225 -84.60531673531 0.9981686298231 -84.60531673531 0.0433217762665 -174.1530270109
8.805136000000001 0.0434820439785 -177.4115915237 0.9981620273143 -84.61082109502 0.9981620273092 -84.61082109502 0.0434173836062 -174.1637705916
8.805138000000001 0.0435779492380 -177.4131711347 0.9981553943003 -84.61634054644 0.9981553942978 -84.61634054643 0.0435132538728 -174.1745247085
8.805140000000000 0.0436741184093 -177.4147769746 0.9981487303071 -84.62187513566 0.9981487303039 -84.62187513565 0.0436093878613 -174.1852898522
8.805142000000000 0.0437705549074 -177.4164089951 0.9981420351003 -84.62742505909 0.9981420351071 -84.62742505909 0.0437057889938 -174.1960662139
8.805144000000000 0.0438672546960 -177.4180672848 0.9981353087630 -84.63299008507 0.9981353087702 -84.63299008507 0.0438024532275 -174.2068534605
8.805146000000001 0.0439642231003 -177.4197518630 0.9981285509004 -84.63857051950 0.9981285508974 -84.63857051951 0.0438993858921 -174.2176520495
8.805148000000001 0.0440614593335 -177.4214627436 0.9981217614671 -84.64416631746 0.9981217614687 -84.64416631746 0.0439965862014 -174.2284618212
8.805150000000001 0.0441589653732 -177.4232002014 0.9981149400604 -84.64977759203 0.9981149400686 -84.64977759203 0.0440940561208 -174.2392831858
8.805152000000001 0.0442567439085 -177.4249642474 0.9981080864395 -84.65540449784 0.9981080864373 -84.65540449784 0.0441917983422 -174.2501163611
8.805154000000000 0.0443547919944 -177.4267545953 0.9981012009103 -84.66104686682 0.9981012009001 -84.66104686682 0.0442898099366 -174.2609606949
8.805156000000000 0.0444531147872 -177.4285714450 0.9980942829473 -84.66670499473 0.9980942829422 -84.66670499473 0.0443880960545 -174.2718167824
8.805158000000000 0.0445517111497 -177.4304151992 0.9980873322200 -84.67237881557 0.9980873322228 -84.67237881557 0.0444866555377 -174.2826848674
8.805160000000001 0.0446505818535 -177.4322856896 0.9980803487321 -84.67806837433 0.9980803487210 -84.67806837432 0.0445854891688 -174.2935648162
8.805162000000001 0.0447497307390 -177.4341827458 0.9980733323181 -84.68377389219 0.9980733323250 -84.68377389219 0.0446846008032 -174.3044566700
8.805164000000001 0.0448491561170 -177.4361067745 0.9980662826716 -84.68949527144 0.9980662826745 -84.68949527144 0.0447839887290 -174.3153606833
8.805166000000000 0.0449488599894 -177.4380575887 0.9980591997418 -84.69523262777 0.9980591997453 -84.69523262777 0.0448836549623 -174.3262767474
8.805168000000000 0.0450488425406 -177.4400355265 0.9980520831680 -84.70098597119 0.9980520831606 -84.70098597118 0.0449835996703 -174.3372051700
8.805170000000000 0.0451491079546 -177.4420403871 0.9980449327882 -84.70675554270 0.9980449327938 -84.70675554270 0.0450838270539 -174.3481460097
8.805172000000001 0.0452496558212 -177.4440722778 0.9980377484548 -84.71254131878 0.9980377484551 -84.71254131878 0.0451843366977 -174.3590993205
8.805174000000001 0.0453504857339 -177.4461312955 0.9980305300269 -84.71834327616 0.9980305300320 -84.71834327617 0.0452851281923 -174.3700650580
8.805176000000001 0.0454516014054 -177.4482175125 0.9980232771530 -84.72416162809 0.9980232771414 -84.72416162809 0.0453862052502 -174.3810435928
8.805178000000000 0.0455530029618 -177.4503310288 0.9980159896583 -84.72999638185 0.9980159896697 -84.72999638186 0.0454875679952 -174.3920348878
8.805180000000000 0.0456546903477 -177.4524719467 0.9980086673748 -84.73584753433 0.9980086673757 -84.73584753432 0.0455892163668 -174.4030390637
8.805182000000000 0.0457566669312 -177.4546400822 0.9980013101728 -84.74171527966 0.9980013101799 -84.74171527965 0.0456911537489 -174.4140560954
8.805184000000001 0.0458589329190 -177.4568355926 0.9979939178257 -84.74759962962 0.9979939178297 -84.74759962962 0.0457933803414 -174.4250861196
8.805186000000001 0.0459614893682 -177.4590589400 0.9979864898135 -84.75350064404 0.9979864898138 -84.75350064404 0.0458958971785 -174.4361296090
8.805188000000001 0.0460643387299 -177.4613096354 0.9979790263005 -84.75941846522 0.9979790262984 -84.75941846521 0.0459987067423 -174.4471862100
8.805190000000001 0.0461674796081 -177.4635879782 0.9979715270312 -84.76535301255 0.9979715270237 -84.76535301255 0.0461018076213 -174.4582560373
8.805192000000000 0.0462709149568 -177.4658942115 0.9979639915534 -84.77130445535 0.9979639915491 -84.77130445535 0.0462052027608 -174.4693395003
8.805194000000000 0.0463746471682 -177.4682280800 0.9979564198472 -84.77727293193 0.9979564198469 -84.77727293192 0.0463088945703 -174.4804364835
8.805196000000000 0.0464786747777 -177.4705898445 0.9979488116877 -84.78325835787 0.9979488116856 -84.78325835786 0.0464128815721 -174.4915470605
8.805198000000001 0.0465830036964 -177.4729795084 0.9979411666520 -84.78926107289 0.9979411666518 -84.78926107288 0.0465171696843 -174.5026716464
8.805200000000001 0.0466876310693 -177.4753973162 0.9979334846019 -84.79528091277 0.9979334845948 -84.79528091277 0.0466217560378 -174.5138101885
8.805202000000001 0.0467925561292 -177.4778429457 0.9979257657444 -84.80131783461 0.9979257657380 -84.80131783462 0.0467266398847 -174.5249622089
8.805204000000000 0.0468977854376 -177.4803167785 0.9979180093116 -84.80737221454 0.9979180093033 -84.80737221454 0.0468318277731 -174.5361285745
8.805206000000000 0.0470033181177 -177.4828188585 0.9979102152171 -84.81344400243 0.9979102152263 -84.81344400244 0.0469373188253 -174.5473091547
8.805208000000000 0.0471091554098 -177.4853491158 0.9979023833511 -84.81953327002 0.9979023833514 -84.81953327002 0.0470431142879 -174.5585039640
8.805210000000001 0.0472152987493 -177.4879079204 0.9978945132312 -84.82564009914 0.9978945132261 -84.82564009914 0.0471492155802 -174.5697133796
8.805212000000001 0.0473217476724 -177.4904948968 0.9978866050906 -84.83176446447 0.9978866050905 -84.83176446447 0.0472556222605 -174.5809369062
8.805214000000001 0.0474285083057 -177.4931103444 0.9978786582485 -84.83790671739 0.9978786582472 -84.83790671739 0.0473623404464 -174.5921752850
8.805216000000000 0.0475355767951 -177.4957546429 0.9978706724970 -84.84406663597 0.9978706725008 -84.84406663598 0.0474693662619 -174.6034284954
8.805218000000000 0.0476429573016 -177.4984272970 0.9978626479174 -84.85024446078 0.9978626479169 -84.85024446078 0.0475767039005 -174.6146963200
8.805220000000000 0.0477506498124 -177.5011286204 0.9978545841466 -84.85644019064 0.9978545841481 -84.85644019065 0.0476843533350 -174.6259789779
8.805222000000001 0.0478586576002 -177.5038590499 0.9978464805381 -84.86265401272 0.9978464805404 -84.86265401274 0.0477923178191 -174.6372771011
8.805224000000001 0.0479669797217 -177.5066181449 0.9978383374047 -84.86888587436 0.9978383374017 -84.86888587435 0.0479005964343 -174.6485901024
8.805226000000001 0.0480756193195 -177.5094061023 0.9978301543059 -84.87513595589 0.9978301543052 -84.87513595590 0.0480091923190 -174.6599183359
8.805228000000001 0.0481845742993 -177.5122231099 0.9978219310899 -84.88140413692 0.9978219310813 -84.88140413692 0.0481181033671 -174.6712617707
8.805230000000000 0.0482938519088 -177.5150691107 0.9978136673057 -84.88769083420 0.9978136673034 -84.88769083420 0.0482273368399 -174.6826208116
8.805232000000000 0.0484034499802 -177.5179446277 0.9978053625203 -84.89399592226 0.9978053625134 -84.89399592227 0.0483368905404 -174.6939957651
8.805234000000000 0.0485133704655 -177.5208490822 0.9977970170068 -84.90031951509 0.9977970170110 -84.90031951509 0.0484467664566 -174.7053860946
8.805236000000001 0.0486236141338 -177.5237828901 0.9977886302621 -84.90666165616 0.9977886302585 -84.90666165617 0.0485569653377 -174.7167922401
8.805238000000001 0.0487341847406 -177.5267463422 0.9977802017257 -84.91302256079 0.9977802017200 -84.91302256080 0.0486674909293 -174.7282146744
8.805240000000001 0.0488450798759 -177.5297389923 0.9977717317934 -84.91940209213 0.9977717317941 -84.91940209213 0.0487783408457 -174.7396526853
8.805242000000000 0.0489563027925 -177.5327611700 0.9977632198975 -84.92580043652 0.9977632199039 -84.92580043652 0.0488895183270 -174.7511067848
8.805244000000000 0.0490678551837 -177.5358134101 0.9977546653754 -84.93221769021 0.9977546653880 -84.93221769021 0.0490010250413 -174.7625775581
8.805246000000000 0.0491797398523 -177.5388950871 0.9977460684969 -84.93865401623 0.9977460685048 -84.93865401623 0.0491128638308 -174.7740645236
8.805248000000001 0.0492919576419 -177.5420066013 0.9977374287584 -84.94510946238 0.9977374287543 -84.94510946238 0.0492250355201 -174.7855680620
8.805250000000001 0.0494045082735 -177.5451477809 0.9977287462058 -84.95158401351 0.9977287462115 -84.95158401350 0.0493375398422 -174.7970878676
8.805252000000001 0.0495173928573 -177.5483192543 0.9977200201202 -84.95807773213 0.9977200201177 -84.95807773214 0.0494503778757 -174.8086246212
8.805254000000000 0.0496306169563 -177.5515207530 0.9977112503173 -84.96459093890 0.9977112503177 -84.96459093891 0.0495635552070 -174.8201783522
8.805256000000000 0.0497441793933 -177.5547523964 0.9977024366369 -84.97112356631 0.9977024366445 -84.97112356630 0.0496770706528 -174.8317490203
8.805258000000000 0.0498580797423 -177.5580142377 0.9976935789344 -84.97767559016 0.9976935789379 -84.97767559016 0.0497909237864 -174.8433365864
8.805260000000001 0.0499723220867 -177.5613065488 0.9976846766343 -84.98424724472 0.9976846766295 -84.98424724472 0.0499051186829 -174.8549415339
8.805262000000001 0.0500869065499 -177.5646289553 0.9976757299338 -84.99083853850 0.9976757299283 -84.99083853850 0.0500196554891 -174.8665634027
8.805264000000001 0.0502018378799 -177.5679823040 0.9976667377179 -84.99744974242 0.9976667377189 -84.99744974243 0.0501345389141 -174.8782033044
8.805266000000001 0.0503171129341 -177.5713660847 0.9976577004734 -85.00408067776 0.9976577004706 -85.00408067777 0.0502497658417 -174.8898604399
8.805268000000000 0.0504327381930 -177.5747802663 0.9976486177607 -85.01073171729 0.9976486177538 -85.01073171728 0.0503653427637 -174.9015351505
8.805270000000000 0.0505487109543 -177.5782256147 0.9976394889214 -85.01740270420 0.9976394889291 -85.01740270419 0.0504812669356 -174.9132279073
8.805272000000000 0.0506650330577 -177.5817014758 0.9976303143066 -85.02409374637 0.9976303143028 -85.02409374637 0.0505975402372 -174.9249381561
8.805274000000001 0.0507817090030 -177.5852085187 0.9976210929596 -85.03080510095 0.9976210929550 -85.03080510095 0.0507141671392 -174.9366667621
8.805276000000001 0.0508987405543 -177.5887465015 0.9976118248715 -85.03753687038 0.9976118248687 -85.03753687038 0.0508311494235 -174.9484135325
8.805278000000001 0.0510161236549 -177.5923157469 0.9976025098372 -85.04428882124 0.9976025098338 -85.04428882124 0.0509484830129 -174.9601784312
8.805280000000000 0.0511338679025 -177.5959163264 0.9975931471567 -85.05106150514 0.9975931471607 -85.05106150513 0.0510661775155 -174.9719621046
8.805282000000000 0.0512519695985 -177.5995481845 0.9975837369397 -85.05785471023 0.9975837369428 -85.05785471023 0.0511842292335 -174.9837641744
8.805284000000000 0.0513704299314 -177.6032111203 0.9975742791699 -85.06466850582 0.9975742791711 -85.06466850583 0.0513026393703 -174.9955844315
8.805286000000001 0.0514892544367 -177.6069059654 0.9975647726771 -85.07150320815 0.9975647726713 -85.07150320814 0.0514214134245 -175.0074240114
8.805288000000001 0.0516084417764 -177.6106323195 0.9975552177530 -85.07835874190 0.9975552177499 -85.07835874189 0.0515405500812 -175.0192823204
8.805290000000001 0.0517279939850 -177.6143903490 0.9975456140039 -85.08523522403 0.9975456140003 -85.08523522402 0.0516600513708 -175.0311595948
8.805292000000000 0.0518479127298 -177.6181801008 0.9975359611619 -85.09213275066 0.9975359611696 -85.09213275066 0.0517799189628 -175.0430558945
8.805294000000000 0.0519682027360 -177.6220020114 0.9975262584455 -85.09905159260 0.9975262584465 -85.09905159260 0.0519001575661 -175.0549719241
8.805296000000000 0.0520888620812 -177.6258560453 0.9975165058443 -85.10599164000 0.9975165058341 -85.10599164000 0.0520207652606 -175.0669074180
8.805298000000001 0.0522098920049 -177.6297416316 0.9975067036713 -85.11295296613 0.9975067036669 -85.11295296613 0.0521417433213 -175.0788617792
8.805300000000001 0.0523312980181 -177.6336599972 0.9974968503792 -85.11993588479 0.9974968503617 -85.11993588479 0.0522630972009 -175.0908365593
8.805302000000001 0.0524530773096 -177.6376105021 0.9974869465517 -85.12694023674 0.9974869465450 -85.12694023673 0.0523848241230 -175.1028307971
8.805304000000001 0.0525752337848 -177.6415934681 0.9974769915459 -85.13396624599 0.9974769915468 -85.13396624599 0.0525069279822 -175.1148450185
8.805306000000000 0.0526977708108 -177.6456086207 0.9974669852928 -85.14101410728 0.9974669852843 -85.14101410727 0.0526294121676 -175.1268790978
8.805308000000000 0.0528206889768 -177.6496567652 0.9974569268730 -85.14808385280 0.9974569268687 -85.14808385280 0.0527522772279 -175.1389337602
8.805310000000000 0.0529439886086 -177.6537377959 0.9974468162156 -85.15517550211 0.9974468162219 -85.15517550212 0.0528755234973 -175.1510088424
8.805312000000001 0.0530676733439 -177.6578512925 0.9974366533699 -85.16228926590 0.9974366533701 -85.16228926590 0.0529991546437 -175.1631040975
8.805314000000001 0.0531917438258 -177.6619979964 0.9974264374647 -85.16942517965 0.9974264374595 -85.16942517965 0.0531231712734 -175.1752202038
8.805316000000001 0.0533162010914 -177.6661777484 0.9974161684393 -85.17658330393 0.9974161684406 -85.17658330394 0.0532475744360 -175.1873569694
8.805318000000000 0.0534410511524 -177.6703904648 0.9974058459079 -85.18376398496 0.9974058459201 -85.18376398496 0.0533723701582 -175.1995146143
8.805320000000000 0.0535662898788 -177.6746366843 0.9973954694239 -85.19096698453 0.9973954694189 -85.19096698451 0.0534975542774 -175.2116933630
8.805322000000000 0.0536919247077 -177.6789161590 0.9973850386791 -85.19819273120 0.9973850386857 -85.19819273120 0.0536231342578 -175.2238932880
8.805324000000001 0.0538179506378 -177.6832290970 0.9973745535761 -85.20544093762 0.9973745535762 -85.20544093762 0.0537491050813 -175.2361142459
8.805326000000001 0.0539443764445 -177.6875757966 0.9973640132243 -85.21271210779 0.9973640132190 -85.21271210779 0.0538754755221 -175.2483569770
8.805328000000001 0.0540712017990 -177.6919560995 0.9973534176275 -85.22000622383 0.9973534176287 -85.22000622383 0.0540022452624 -175.2606212002
8.805330000000001 0.0541984265278 -177.6963705155 0.9973427661499 -85.22732327497 0.9973427661547 -85.22732327497 0.0541294141029 -175.2729073430
8.805332000000000 0.0543260540168 -177.7008185674 0.9973320589047 -85.23466345769 0.9973320589099 -85.23466345769 0.0542569854631 -175.2852150475
8.805334000000000 0.0544540867227 -177.7053009032 0.9973212949869 -85.24202691196 0.9973212949780 -85.24202691195 0.0543849617698 -175.2975450363
8.805336000000000 0.0545825267103 -177.7098172687 0.9973104743647 -85.24941375776 0.9973104743561 -85.24941375776 0.0545133451081 -175.3098970602
8.805338000000001 0.0547113729993 -177.7143678884 0.9972995967056 -85.25682393875 0.9972995967072 -85.25682393875 0.0546421344861 -175.3222711995
8.805340000000001 0.0548406329254 -177.7189532257 0.9972886610233 -85.26425787581 0.9972886610241 -85.26425787580 0.0547713372273 -175.3346682946
8.805342000000001 0.0549703020841 -177.7235728734 0.9972776677583 -85.27171531759 0.9972776677599 -85.27171531758 0.0549009489459 -175.3470875675
8.805344000000000 0.0551003871090 -177.7282270941 0.9972666161497 -85.27919664522 0.9972666161408 -85.27919664522 0.0550309762735 -175.3595296030
8.805346000000000 0.0552308889444 -177.7329162164 0.9972555056586 -85.28670191268 0.9972555056702 -85.28670191268 0.0551614201403 -175.3719946506
8.805348000000000 0.0553618074436 -177.7376402610 0.9972443360952 -85.29423111213 0.9972443360900 -85.29423111213 0.0552922804005 -175.3844827026
8.805350000000001 0.0554931465552 -177.7423993003 0.9972331070116 -85.30178447095 0.9972331070036 -85.30178447095 0.0554235610079 -175.3969939205
8.805352000000001 0.0556249104449 -177.7471935044 0.9972218178527 -85.30936222873 0.9972218178570 -85.30936222873 0.0555552661278 -175.4095286262
8.805354000000001 0.0557570961510 -177.7520230299 0.9972104684350 -85.31696421546 0.9972104684438 -85.31696421546 0.0556873927875 -175.4220867340
8.805356000000000 0.0558897082880 -177.7568879428 0.9971990582780 -85.32459069686 0.9971990582730 -85.32459069686 0.0558199456079 -175.4346684988
8.805358000000000 0.0560227514945 -177.7617881951 0.9971875870108 -85.33224194033 0.9971875870129 -85.33224194032 0.0559529292400 -175.4472740075
8.805360000000000 0.0561562220207 -177.7667243697 0.9971760540665 -85.33991772939 0.9971760540655 -85.33991772939 0.0560863398992 -175.4599035664
8.805362000000001 0.0562901248831 -177.7716960711 0.9971644593916 -85.34761835416 0.9971644593906 -85.34761835416 0.0562201826334 -175.4725569624
8.805364000000001 0.0564244632877 -177.7767039743 0.9971528019728 -85.35534399772 0.9971528019718 -85.35534399772 0.0563544606199 -175.4852349647
8.805366000000001 0.0565592418014 -177.7817476682 0.9971410817941 -85.36309492441 0.9971410817927 -85.36309492441 0.0564891784577 -175.4979373262
8.805368000000001 0.0566944555677 -177.7868275638 0.9971292985018 -85.37087085465 0.9971292985014 -85.37087085464 0.0566243312631 -175.5106640873
8.805370000000000 0.0568301116296 -177.7919438859 0.9971174513253 -85.37867219332 0.9971174513397 -85.37867219332 0.0567599260804 -175.5234157649
8.805372000000000 0.0569662114791 -177.7970967049 0.9971055399230 -85.38649902672 0.9971055399240 -85.38649902673 0.0568959644027 -175.5361924602
8.805374000000000 0.0571027560339 -177.8022859472 0.9970935641245 -85.39435140854 0.9970935641137 -85.39435140854 0.0570324471560 -175.5489940255
8.805376000000001 0.0572397475886 -177.8075116502 0.9970815235794 -85.40222947131 0.9970815235745 -85.40222947131 0.0571693766396 -175.5618205145
8.805378000000001 0.0573771897498 -177.8127746400 0.9970694170805 -85.41013342071 0.9970694170831 -85.41013342071 0.0573067564229 -175.5746728759
8.805380000000001 0.0575150829958 -177.8180743871 0.9970572449296 -85.41806328653 0.9970572449266 -85.41806328653 0.0574445870170 -175.5875505237
8.805382000000000 0.0576534317401 -177.8234111683 0.9970450064248 -85.42601932243 0.9970450064229 -85.42601932242 0.0575828728303 -175.6004538611
8.805384000000000 0.0577922368562 -177.8287855925 0.9970327007023 -85.43400157763 0.9970327007019 -85.43400157763 0.0577216147067 -175.6133834559
8.805386000000000 0.0579314983937 -177.8341972751 0.9970203279375 -85.44201005687 0.9970203279381 -85.44201005687 0.0578608127199 -175.6263388292
8.805388000000001 0.0580712225332 -177.8396462535 0.9970078875756 -85.45004511613 0.9970078875756 -85.45004511613 0.0580004730615 -175.6393202573
8.805390000000001 0.0582114091611 -177.8451330183 0.9969953789132 -85.45810674825 0.9969953789231 -85.45810674824 0.0581405955934 -175.6523281162
8.805392000000001 0.0583520633110 -177.8506577088 0.9969828013439 -85.46619524301 0.9969828013454 -85.46619524300 0.0582811853533 -175.6653627450
8.805394000000000 0.0584931829977 -177.8562202289 0.9969701548474 -85.47431048735 0.9969701548523 -85.47431048736 0.0584222403603 -175.6784238139
8.805396000000000 0.0586347717612 -177.8618207923 0.9969574388124 -85.48245268499 0.9969574388120 -85.48245268499 0.0585637641512 -175.6915116481
8.805398000000000 0.0587768351706 -177.8674600324 0.9969446520937 -85.49062215508 0.9969446520881 -85.49062215508 0.0587057622728 -175.7046270688
8.805400000000001 0.0589193724917 -177.8731371538 0.9969317953210 -85.49881885856 0.9969317953261 -85.49881885855 0.0588482340363 -175.7177691248
8.805402000000001 0.0590623869274 -177.8788532030 0.9969188670367 -85.50704297736 0.9969188670425 -85.50704297736 0.0589911825956 -175.7309389596