! Sonnet Data File
! From: emgraph Version : 16.52
! From Project: 171117_Xmon_fullysym
! Data is De-embedded 
! Data File Written: 11/26/2017 17:14:23
!< HDATE 11/22/2017 16:48:52
!< MDATE 11/23/2017 10:16:42
!< PARAMS
!< Lj = 11.0
!< Gap = 1.0
!< Pwid = 2000.0
!< Airgap = 6.0
!< Width = 10.0
!< Lj1 = 10.2
!< END PARAMS
# GHZ S MA R 50.90000
8.680000000000000 0.0251871074294 -1.459180181713 0.9996793656459 -79.77850643966 0.9996793656444 -79.77850643954 0.0251881135412 21.912755704583
!< P1 F=8.68 Eeff=(6.44843488 -2.9797e-5) Z0=(50.9086135 1.17022e-4) R=0.0 C=0.0 
!< P2 F=8.68 Eeff=(6.44843488 -2.9797e-5) Z0=(50.9086135 1.17022e-4) R=0.0 C=0.0 
8.680100000000001 0.0251864157471 -1.460719977639 0.9996793826518 -79.77947433801 0.9996793826518 -79.77947433801 0.0251874220032 21.912360866701
8.680200000000001 0.0251857228003 -1.462260499794 0.9996793996883 -79.78044231044 0.9996793996883 -79.78044231044 0.0251867292026 21.911966617424
8.680300000000001 0.0251850285824 -1.463801757271 0.9996794167560 -79.78141035724 0.9996794167560 -79.78141035724 0.0251860351313 21.911572959499
8.680400000000001 0.0251843330900 -1.465343752918 0.9996794338551 -79.78237847862 0.9996794338551 -79.78237847862 0.0251853397858 21.911179893741
8.680500000000000 0.0251836363196 -1.466886488492 0.9996794509857 -79.78334667479 0.9996794509857 -79.78334667479 0.0251846431626 21.910787422351
8.680600000000000 0.0251829382679 -1.468429965567 0.9996794681477 -79.78431494593 0.9996794681477 -79.78431494593 0.0251839452586 21.910395546994
8.680700000000000 0.0251822389331 -1.469974186130 0.9996794853414 -79.78528329216 0.9996794853414 -79.78528329216 0.0251832460717 21.910004268134
8.680800000000001 0.0251815383112 -1.471519151839 0.9996795025666 -79.78625171370 0.9996795025666 -79.78625171370 0.0251825455981 21.909613588236
8.680900000000001 0.0251808363994 -1.473064864568 0.9996795198236 -79.78722021073 0.9996795198236 -79.78722021073 0.0251818438351 21.909223508429
8.681000000000001 0.0251801331955 -1.474611325702 0.9996795371123 -79.78818878337 0.9996795371123 -79.78818878337 0.0251811407802 21.908834030001
8.681100000000001 0.0251794286964 -1.476158537349 0.9996795544329 -79.78915743182 0.9996795544329 -79.78915743182 0.0251804364305 21.908445154210
8.681200000000000 0.0251787228965 -1.477706502491 0.9996795717854 -79.79012615638 0.9996795717854 -79.79012615638 0.0251797307805 21.908056883758
8.681300000000000 0.0251780157955 -1.479255221574 0.9996795891699 -79.79109495709 0.9996795891699 -79.79109495709 0.0251790238296 21.907669219074
8.681400000000000 0.0251773073890 -1.480804697477 0.9996796065866 -79.79206383421 0.9996796065866 -79.79206383421 0.0251783155735 21.907282161891
8.681500000000000 0.0251765976728 -1.482354932071 0.9996796240354 -79.79303278797 0.9996796240354 -79.79303278797 0.0251776060082 21.906895714693
8.681600000000001 0.0251758866468 -1.483905925866 0.9996796415163 -79.79400181838 0.9996796415163 -79.79400181838 0.0251768951335 21.906509877548
8.681700000000001 0.0251751743046 -1.485457682808 0.9996796590297 -79.79497092583 0.9996796590297 -79.79497092583 0.0251761829429 21.906124653064
8.681800000000001 0.0251744606462 -1.487010202838 0.9996796765753 -79.79594011031 0.9996796765753 -79.79594011031 0.0251754694365 21.905740041793
8.681900000000001 0.0251737456651 -1.488563489488 0.9996796941534 -79.79690937220 0.9996796941534 -79.79690937220 0.0251747546078 21.905356046852
8.682000000000000 0.0251730293597 -1.490117544537 0.9996797117642 -79.79787871161 0.9996797117642 -79.79787871161 0.0251740384550 21.904972668483
8.682100000000000 0.0251723117272 -1.491672368477 0.9996797294073 -79.79884812868 0.9996797294073 -79.79884812868 0.0251733209757 21.904589909081
8.682200000000000 0.0251715927643 -1.493227964412 0.9996797470832 -79.79981762363 0.9996797470832 -79.79981762363 0.0251726021663 21.904207769387
8.682300000000000 0.0251708724673 -1.494784334276 0.9996797647919 -79.80078719666 0.9996797647919 -79.80078719666 0.0251718820231 21.903826251468
8.682400000000001 0.0251701508332 -1.496341479680 0.9996797825334 -79.80175684795 0.9996797825334 -79.80175684795 0.0251711605432 21.903445356886
8.682500000000001 0.0251694278585 -1.497899402911 0.9996798003078 -79.80272657771 0.9996798003078 -79.80272657771 0.0251704377231 21.903065087297
8.682600000000001 0.0251687035402 -1.499458105513 0.9996798181152 -79.80369638611 0.9996798181152 -79.80369638611 0.0251697135599 21.902685444276
8.682700000000001 0.0251679778756 -1.501017589672 0.9996798359556 -79.80466627332 0.9996798359556 -79.80466627332 0.0251689880506 21.902306428913
8.682800000000000 0.0251672508595 -1.502577858076 0.9996798538292 -79.80563623963 0.9996798538292 -79.80563623963 0.0251682611902 21.901928043904
8.682900000000000 0.0251665224923 -1.504138910702 0.9996798717360 -79.80660628504 0.9996798717360 -79.80660628504 0.0251675329791 21.901550289240
8.683000000000000 0.0251657927664 -1.505700752185 0.9996798896761 -79.80757640997 0.9996798896762 -79.80757640997 0.0251668034097 21.901173168143
8.683100000000001 0.0251650616807 -1.507263382786 0.9996799076496 -79.80854661450 0.9996799076496 -79.80854661450 0.0251660724810 21.900796681742
8.683200000000001 0.0251643292323 -1.508826804740 0.9996799256565 -79.80951689880 0.9996799256564 -79.80951689880 0.0251653401898 21.900420831166
8.683300000000001 0.0251635954163 -1.510391020857 0.9996799436969 -79.81048726316 0.9996799436969 -79.81048726316 0.0251646065315 21.900045618752
8.683400000000001 0.0251628602299 -1.511956032737 0.9996799617710 -79.81145770774 0.9996799617710 -79.81145770774 0.0251638715031 21.899671046004
8.683500000000000 0.0251621236703 -1.513521842267 0.9996799798787 -79.81242823270 0.9996799798787 -79.81242823270 0.0251631351019 21.899297114222
8.683600000000000 0.0251613857360 -1.515088450138 0.9996799980201 -79.81339883814 0.9996799980201 -79.81339883814 0.0251623973265 21.898923824479
8.683700000000000 0.0251606464186 -1.516655861613 0.9996800161955 -79.81436952455 0.9996800161955 -79.81436952455 0.0251616581682 21.898551180372
8.683800000000000 0.0251599057195 -1.518224075890 0.9996800344048 -79.81534029185 0.9996800344048 -79.81534029185 0.0251609176288 21.898179181461
8.683900000000001 0.0251591636326 -1.519793096170 0.9996800526480 -79.81631114038 0.9996800526480 -79.81631114038 0.0251601757019 21.897807831059
8.684000000000001 0.0251584201571 -1.521362923660 0.9996800709252 -79.81728207022 0.9996800709252 -79.81728207022 0.0251594323867 21.897437129227
8.684100000000001 0.0251576752857 -1.522933562598 0.9996800892368 -79.81825308177 0.9996800892368 -79.81825308177 0.0251586876761 21.897067079175
8.684200000000001 0.0251569290191 -1.524505012090 0.9996801075825 -79.81922417501 0.9996801075825 -79.81922417501 0.0251579415708 21.896697681444
8.684300000000000 0.0251561813502 -1.526077276929 0.9996801259626 -79.82019535034 0.9996801259625 -79.82019535034 0.0251571940634 21.896328938836
8.684400000000000 0.0251554322785 -1.527650357379 0.9996801443770 -79.82116660781 0.9996801443770 -79.82116660781 0.0251564451537 21.895960851865
8.684500000000000 0.0251546817983 -1.529224256480 0.9996801628259 -79.82213794773 0.9996801628259 -79.82213794773 0.0251556948359 21.895593423443
8.684600000000000 0.0251539299074 -1.530798976058 0.9996801813094 -79.82310937026 0.9996801813094 -79.82310937026 0.0251549431077 21.895226654459
8.684700000000001 0.0251531766023 -1.532374518017 0.9996801998275 -79.82408087557 0.9996801998275 -79.82408087557 0.0251541899658 21.894860546689
8.684800000000001 0.0251524218784 -1.533950885339 0.9996802183805 -79.82505246396 0.9996802183805 -79.82505246396 0.0251534354055 21.894495102191
8.684900000000001 0.0251516657337 -1.535528079045 0.9996802369681 -79.82602413554 0.9996802369681 -79.82602413554 0.0251526794248 21.894130322365
8.685000000000000 0.0251509081636 -1.537106102034 0.9996802555908 -79.82699589057 0.9996802555908 -79.82699589057 0.0251519220190 21.893766209152
8.685100000000000 0.0251501491651 -1.538684955916 0.9996802742483 -79.82796772925 0.9996802742483 -79.82796772925 0.0251511631853 21.893402764333
8.685200000000000 0.0251493887339 -1.540264643292 0.9996802929409 -79.82893965180 0.9996802929409 -79.82893965180 0.0251504029194 21.893039989882
8.685300000000000 0.0251486268692 -1.541845165309 0.9996803116687 -79.82991165830 0.9996803116687 -79.82991165830 0.0251496412203 21.892677886033
8.685400000000001 0.0251478635624 -1.543426526416 0.9996803304318 -79.83088374923 0.9996803304318 -79.83088374923 0.0251488780795 21.892316457092
8.685500000000001 0.0251470988137 -1.545008726983 0.9996803492302 -79.83185592459 0.9996803492302 -79.83185592459 0.0251481134972 21.891955702955
8.685600000000001 0.0251463326192 -1.546591768676 0.9996803680638 -79.83282818461 0.9996803680638 -79.83282818461 0.0251473474696 21.891595626129
8.685700000000001 0.0251455649744 -1.548175655059 0.9996803869330 -79.83380052956 0.9996803869330 -79.83380052956 0.0251465799921 21.891236228007
8.685800000000000 0.0251447958762 -1.549760387911 0.9996804058379 -79.83477295961 0.9996804058379 -79.83477295961 0.0251458110615 21.890877510352
8.685900000000000 0.0251440253198 -1.551345969637 0.9996804247783 -79.83574547505 0.9996804247783 -79.83574547505 0.0251450406732 21.890519475727
8.686000000000000 0.0251432533033 -1.552932401832 0.9996804437545 -79.83671807600 0.9996804437545 -79.83671807600 0.0251442688251 21.890162124982
8.686100000000000 0.0251424798218 -1.554519687219 0.9996804627665 -79.83769076272 0.9996804627665 -79.83769076272 0.0251434955126 21.889805460480
8.686200000000001 0.0251417048720 -1.556107828043 0.9996804818145 -79.83866353544 0.9996804818145 -79.83866353544 0.0251427207321 21.889449483882
8.686300000000001 0.0251409284495 -1.557696826787 0.9996805008984 -79.83963639439 0.9996805008984 -79.83963639439 0.0251419444794 21.889094197335
8.686400000000001 0.0251401505532 -1.559286684301 0.9996805200185 -79.84060933965 0.9996805200185 -79.84060933965 0.0251411667533 21.888739601460
8.686500000000001 0.0251393711748 -1.560877405081 0.9996805391746 -79.84158237171 0.9996805391746 -79.84158237171 0.0251403875455 21.888385700562
8.686600000000000 0.0251385903153 -1.562468989484 0.9996805583671 -79.84255549051 0.9996805583671 -79.84255549051 0.0251396068570 21.888032493590
8.686700000000000 0.0251378079688 -1.564061440367 0.9996805775959 -79.84352869638 0.9996805775959 -79.84352869638 0.0251388246820 21.887679983920
8.686800000000000 0.0251370241304 -1.565654760619 0.9996805968610 -79.84450198963 0.9996805968610 -79.84450198963 0.0251380410155 21.887328174068
8.686900000000001 0.0251362387988 -1.567248951935 0.9996806161629 -79.84547537033 0.9996806161629 -79.84547537033 0.0251372558562 21.886977063918
8.687000000000001 0.0251354519693 -1.568844016260 0.9996806355013 -79.84644883875 0.9996806355013 -79.84644883875 0.0251364691995 21.886626656696
8.687100000000001 0.0251346636370 -1.570439957141 0.9996806548764 -79.84742239519 0.9996806548764 -79.84742239519 0.0251356810403 21.886276954220
8.687200000000001 0.0251338737991 -1.572036775671 0.9996806742883 -79.84839603981 0.9996806742883 -79.84839603981 0.0251348913760 21.885927958378
8.687300000000000 0.0251330824521 -1.573634474492 0.9996806937370 -79.84936977280 0.9996806937370 -79.84936977280 0.0251341002031 21.885579670482
8.687400000000000 0.0251322895910 -1.575233056638 0.9996807132228 -79.85034359448 0.9996807132228 -79.85034359448 0.0251333075165 21.885232093091
8.687500000000000 0.0251314952137 -1.576832522910 0.9996807327455 -79.85131750496 0.9996807327455 -79.85131750496 0.0251325133142 21.884885227674
8.687600000000000 0.0251306993152 -1.578432877334 0.9996807523055 -79.85229150454 0.9996807523055 -79.85229150454 0.0251317175910 21.884539075778
8.687700000000001 0.0251299018910 -1.580034121659 0.9996807719027 -79.85326559348 0.9996807719027 -79.85326559348 0.0251309203426 21.884193640476
8.687800000000001 0.0251291029382 -1.581636257873 0.9996807915372 -79.85423977195 0.9996807915372 -79.85423977195 0.0251301215660 21.883848923103
8.687900000000001 0.0251283024529 -1.583239288891 0.9996808112092 -79.85521404018 0.9996808112092 -79.85521404018 0.0251293212574 21.883504925017
8.688000000000001 0.0251275004319 -1.584843216183 0.9996808309187 -79.85618839837 0.9996808309187 -79.85618839837 0.0251285194135 21.883161648417
8.688100000000000 0.0251266968690 -1.586448043448 0.9996808506658 -79.85716284686 0.9996808506658 -79.85716284686 0.0251277160281 21.882819096166
8.688200000000000 0.0251258917618 -1.588053772383 0.9996808704506 -79.85813738582 0.9996808704506 -79.85813738582 0.0251269110989 21.882477269493
8.688300000000000 0.0251250851054 -1.589660405935 0.9996808902732 -79.85911201551 0.9996808902732 -79.85911201551 0.0251261046210 21.882136170558
8.688400000000000 0.0251242768981 -1.591267945252 0.9996809101337 -79.86008673606 0.9996809101337 -79.86008673606 0.0251252965925 21.881795800650
8.688500000000001 0.0251234671340 -1.592876393720 0.9996809300322 -79.86106154780 0.9996809300322 -79.86106154780 0.0251244870078 21.881456162364
8.688600000000001 0.0251226558098 -1.594485753111 0.9996809499686 -79.86203645091 0.9996809499686 -79.86203645091 0.0251236758635 21.881117257739
8.688700000000001 0.0251218429197 -1.596096027551 0.9996809699433 -79.86301144576 0.9996809699433 -79.86301144576 0.0251228631536 21.880779089065
8.688800000000001 0.0251210284628 -1.597707217374 0.9996809899562 -79.86398653239 0.9996809899562 -79.86398653239 0.0251220488774 21.880441657167
8.688900000000000 0.0251202124320 -1.599319326804 0.9996810100075 -79.86496171122 0.9996810100075 -79.86496171122 0.0251212330278 21.880104965459
8.689000000000000 0.0251193948262 -1.600932356927 0.9996810300974 -79.86593698231 0.9996810300974 -79.86593698231 0.0251204156036 21.879769014298
8.689100000000000 0.0251185756386 -1.602546311132 0.9996810502257 -79.86691234606 0.9996810502257 -79.86691234606 0.0251195965981 21.879433807485
8.689200000000001 0.0251177548670 -1.604161191411 0.9996810703927 -79.86788780261 0.9996810703927 -79.86788780261 0.0251187760090 21.879099345860
8.689300000000001 0.0251169325070 -1.605777000037 0.9996810905983 -79.86886335221 0.9996810905983 -79.86886335221 0.0251179538320 21.878765631784
8.689400000000001 0.0251161085533 -1.607393740606 0.9996811108429 -79.86983899517 0.9996811108429 -79.86983899517 0.0251171300618 21.878432667510
8.689500000000001 0.0251152830035 -1.609011414366 0.9996811311263 -79.87081473163 0.9996811311263 -79.87081473163 0.0251163046959 21.878100454572
8.689600000000000 0.0251144558516 -1.610630024727 0.9996811514487 -79.87179056196 0.9996811514487 -79.87179056196 0.0251154777284 21.877768996116
8.689700000000000 0.0251136270962 -1.612249573482 0.9996811718105 -79.87276648622 0.9996811718105 -79.87276648622 0.0251146491579 21.877438292061
8.689800000000000 0.0251127967302 -1.613870064078 0.9996811922113 -79.87374250485 0.9996811922113 -79.87374250485 0.0251138189772 21.877108346646
8.689900000000000 0.0251119647509 -1.615491498363 0.9996812126515 -79.87471861799 0.9996812126515 -79.87471861799 0.0251129871837 21.876779161043
8.690000000000001 0.0251111311540 -1.617113879021 0.9996812331311 -79.87569482590 0.9996812331311 -79.87569482590 0.0251121537731 21.876450737413
8.690100000000001 0.0251102959348 -1.618737208812 0.9996812536501 -79.87667112887 0.9996812536501 -79.87667112887 0.0251113187406 21.876123078159
8.690200000000001 0.0251094590887 -1.620361490870 0.9996812742089 -79.87764752714 0.9996812742089 -79.87764752714 0.0251104820817 21.875796185144
8.690300000000001 0.0251086206122 -1.621986726742 0.9996812948073 -79.87862402094 0.9996812948073 -79.87862402094 0.0251096437930 21.875470060709
8.690400000000000 0.0251077805012 -1.623612919624 0.9996813154455 -79.87960061051 0.9996813154455 -79.87960061051 0.0251088038701 21.875144706463
8.690500000000000 0.0251069387525 -1.625240071325 0.9996813361237 -79.88057729603 0.9996813361237 -79.88057729603 0.0251079623101 21.874820124090
8.690600000000000 0.0251060953598 -1.626868185306 0.9996813568418 -79.88155407787 0.9996813568418 -79.88155407787 0.0251071191065 21.874496316940
8.690700000000001 0.0251052503190 -1.628497264283 0.9996813776001 -79.88253095629 0.9996813776001 -79.88253095629 0.0251062742553 21.874173286890
8.690800000000001 0.0251044036249 -1.630127311780 0.9996813983987 -79.88350793157 0.9996813983987 -79.88350793157 0.0251054277513 21.873851036025
8.690900000000001 0.0251035552771 -1.631758327442 0.9996814192375 -79.88448500374 0.9996814192375 -79.88448500374 0.0251045795942 21.873529565592
8.691000000000001 0.0251027052685 -1.633390316214 0.9996814401168 -79.88546217324 0.9996814401168 -79.88546217324 0.0251037297766 21.873208878321
8.691100000000000 0.0251018535941 -1.635023280815 0.9996814610366 -79.88643944034 0.9996814610366 -79.88643944034 0.0251028782937 21.872888976942
8.691200000000000 0.0251010002509 -1.636657223032 0.9996814819970 -79.88741680522 0.9996814819970 -79.88741680522 0.0251020251425 21.872569863080
8.691300000000000 0.0251001452336 -1.638292146156 0.9996815029981 -79.88839426820 0.9996815029981 -79.88839426820 0.0251011703178 21.872251539172
8.691400000000000 0.0250992885380 -1.639928052656 0.9996815240400 -79.88937182952 0.9996815240400 -79.88937182952 0.0251003138152 21.871934007618
8.691500000000001 0.0250984301613 -1.641564944853 0.9996815451230 -79.89034948935 0.9996815451230 -79.89034948935 0.0250994556321 21.871617269253
8.691600000000001 0.0250975700951 -1.643202827019 0.9996815662469 -79.89132724819 0.9996815662469 -79.89132724819 0.0250985957599 21.871301328829
8.691700000000001 0.0250967083391 -1.644841699844 0.9996815874119 -79.89230510605 0.9996815874119 -79.89230510605 0.0250977341984 21.870986186331
8.691800000000001 0.0250958448872 -1.646481567128 0.9996816086183 -79.89328306328 0.9996816086183 -79.89328306328 0.0250968709415 21.870671844569
8.691900000000000 0.0250949797342 -1.648122431740 0.9996816298660 -79.89426112020 0.9996816298660 -79.89426112020 0.0250960059841 21.870358306389
8.692000000000000 0.0250941128764 -1.649764296039 0.9996816511550 -79.89523927702 0.9996816511550 -79.89523927702 0.0250951393222 21.870045573747
8.692100000000000 0.0250932443098 -1.651407162761 0.9996816724857 -79.89621753399 0.9996816724857 -79.89621753399 0.0250942709522 21.869733648259
8.692200000000000 0.0250923740290 -1.653051035005 0.9996816938581 -79.89719589140 0.9996816938581 -79.89719589140 0.0250934008684 21.869422532801
8.692300000000001 0.0250915020280 -1.654695916368 0.9996817152722 -79.89817434963 0.9996817152722 -79.89817434963 0.0250925290650 21.869112230317
8.692400000000001 0.0250906283059 -1.656341807767 0.9996817367283 -79.89915290872 0.9996817367283 -79.89915290872 0.0250916555409 21.868802741222
8.692500000000001 0.0250897528552 -1.657988713224 0.9996817582263 -79.90013156912 0.9996817582263 -79.90013156912 0.0250907802888 21.868494069553
8.692600000000001 0.0250888756723 -1.659636635334 0.9996817797664 -79.90111033103 0.9996817797664 -79.90111033103 0.0250899033050 21.868186216878
8.692700000000000 0.0250879967532 -1.661285576507 0.9996818013487 -79.90208919469 0.9996818013487 -79.90208919469 0.0250890245855 21.867879185249
8.692800000000000 0.0250871160914 -1.662935540601 0.9996818229733 -79.90306816050 0.9996818229733 -79.90306816050 0.0250881441237 21.867572977936
8.692900000000000 0.0250862336828 -1.664586530128 0.9996818446403 -79.90404722867 0.9996818446403 -79.90404722867 0.0250872619158 21.867267596887
8.693000000000001 0.0250853495249 -1.666238547025 0.9996818663499 -79.90502639936 0.9996818663499 -79.90502639936 0.0250863779590 21.866963043343
8.693100000000001 0.0250844636109 -1.667891595136 0.9996818881022 -79.90600567299 0.9996818881022 -79.90600567299 0.0250854922466 21.866659320821
8.693200000000001 0.0250835759358 -1.669545677496 0.9996819098972 -79.90698504983 0.9996819098972 -79.90698504983 0.0250846047737 21.866356431652
8.693300000000001 0.0250826864971 -1.671200795596 0.9996819317350 -79.90796453003 0.9996819317350 -79.90796453003 0.0250837155378 21.866054377409
8.693400000000000 0.0250817952873 -1.672856954329 0.9996819536158 -79.90894411404 0.9996819536158 -79.90894411404 0.0250828245312 21.865753161387
8.693500000000000 0.0250809023029 -1.674514155380 0.9996819755397 -79.90992380206 0.9996819755397 -79.90992380206 0.0250819317505 21.865452785882
8.693600000000000 0.0250800075392 -1.676172402126 0.9996819975068 -79.91090359437 0.9996819975068 -79.91090359437 0.0250810371911 21.865153252676
8.693700000000000 0.0250791109924 -1.677831696598 0.9996820195171 -79.91188349119 0.9996820195171 -79.91188349119 0.0250801408491 21.864854564222
8.693800000000001 0.0250782126561 -1.679492043060 0.9996820415710 -79.91286349290 0.9996820415710 -79.91286349290 0.0250792427182 21.864556723178
8.693900000000001 0.0250773125255 -1.681153443975 0.9996820636683 -79.91384359979 0.9996820636683 -79.91384359979 0.0250783427935 21.864259732365
8.694000000000001 0.0250764105966 -1.682815902119 0.9996820858092 -79.91482381208 0.9996820858092 -79.91482381208 0.0250774410710 21.863963593623
8.694100000000001 0.0250755068631 -1.684479421291 0.9996821079940 -79.91580413015 0.9996821079940 -79.91580413015 0.0250765375445 21.863668309948
8.694200000000000 0.0250746013234 -1.686144002644 0.9996821302226 -79.91678455409 0.9996821302226 -79.91678455409 0.0250756322123 21.863373882482
8.694300000000000 0.0250736939687 -1.687809651411 0.9996821524953 -79.91776508443 0.9996821524953 -79.91776508443 0.0250747250656 21.863080315320
8.694400000000000 0.0250727847961 -1.689476368954 0.9996821748118 -79.91874572132 0.9996821748118 -79.91874572132 0.0250738161016 21.862787610420
8.694500000000000 0.0250718738004 -1.691144159501 0.9996821971729 -79.91972646508 0.9996821971729 -79.91972646508 0.0250729053150 21.862495769524
8.694600000000001 0.0250709609769 -1.692813025189 0.9996822195781 -79.92070731599 0.9996822195781 -79.92070731599 0.0250719927012 21.862204795667
8.694700000000001 0.0250700463197 -1.694482969731 0.9996822420278 -79.92168827438 0.9996822420278 -79.92168827438 0.0250710782543 21.861914691629
8.694800000000001 0.0250691298258 -1.696153995126 0.9996822645220 -79.92266934045 0.9996822645220 -79.92266934045 0.0250701619712 21.861625459046
8.694900000000001 0.0250682114871 -1.697826106105 0.9996822870609 -79.92365051466 0.9996822870609 -79.92365051466 0.0250692438438 21.861337101785
8.695000000000000 0.0250672913006 -1.699499304935 0.9996823096447 -79.92463179719 0.9996823096447 -79.92463179719 0.0250683238692 21.861049621298
8.695100000000000 0.0250663692609 -1.701173594796 0.9996823322734 -79.92561318836 0.9996823322734 -79.92561318836 0.0250674020419 21.860763020346
8.695200000000000 0.0250654453644 -1.702848977688 0.9996823549471 -79.92659468839 0.9996823549471 -79.92659468839 0.0250664783584 21.860477301071
8.695300000000001 0.0250645196025 -1.704525459022 0.9996823776660 -79.92757629776 0.9996823776660 -79.92757629776 0.0250655528101 21.860192467204
8.695400000000001 0.0250635919737 -1.706203039841 0.9996824004301 -79.92855801659 0.9996824004301 -79.92855801659 0.0250646253954 21.859908520004
8.695500000000001 0.0250626624688 -1.707881725176 0.9996824232395 -79.92953984541 0.9996824232395 -79.92953984541 0.0250636961052 21.859625464089
8.695600000000001 0.0250617310877 -1.709561516099 0.9996824460945 -79.93052178421 0.9996824460945 -79.93052178421 0.0250627649394 21.859343299091
8.695700000000000 0.0250607978215 -1.711242417922 0.9996824689953 -79.93150383354 0.9996824689953 -79.93150383354 0.0250618318890 21.859062029367
8.695800000000000 0.0250598626670 -1.712924431881 0.9996824919416 -79.93248599357 0.9996824919416 -79.93248599357 0.0250608969509 21.858781657261
8.695900000000000 0.0250589256174 -1.714607562563 0.9996825149338 -79.93346826470 0.9996825149338 -79.93346826470 0.0250599601183 21.858502185780
8.696000000000000 0.0250579866682 -1.716291813074 0.9996825379722 -79.93445064722 0.9996825379722 -79.93445064722 0.0250590213866 21.858223617016
8.696100000000001 0.0250570458146 -1.717977186006 0.9996825610566 -79.93543314137 0.9996825610566 -79.93543314137 0.0250580807511 21.857945953519
8.696200000000001 0.0250561030499 -1.719663685177 0.9996825841871 -79.93641574759 0.9996825841871 -79.93641574759 0.0250571382051 21.857669199056
8.696300000000001 0.0250551583707 -1.721351313518 0.9996826073642 -79.93739846604 0.9996826073642 -79.93739846604 0.0250561937452 21.857393354575
8.696400000000001 0.0250542117703 -1.723040074186 0.9996826305875 -79.93838129714 0.9996826305875 -79.93838129714 0.0250552473648 21.857118424255
8.696500000000000 0.0250532632457 -1.724729970379 0.9996826538577 -79.93936424106 0.9996826538577 -79.93936424106 0.0250542990605 21.856844408736
8.696600000000000 0.0250523127878 -1.726421006400 0.9996826771745 -79.94034729834 0.9996826771745 -79.94034729834 0.0250533488236 21.856571313276
8.696700000000000 0.0250513603928 -1.728113184759 0.9996827005381 -79.94133046919 0.9996827005381 -79.94133046919 0.0250523966503 21.856299139733
8.696800000000001 0.0250504060575 -1.729806508497 0.9996827239488 -79.94231375381 0.9996827239488 -79.94231375381 0.0250514425372 21.856027889141
8.696900000000001 0.0250494497738 -1.731500981567 0.9996827474066 -79.94329715268 0.9996827474066 -79.94329715268 0.0250504864763 21.855757566143
8.697000000000001 0.0250484915372 -1.733196606699 0.9996827709115 -79.94428066605 0.9996827709115 -79.94428066605 0.0250495284632 21.855488173171
8.697100000000001 0.0250475313423 -1.734893388203 0.9996827944640 -79.94526429425 0.9996827944640 -79.94526429425 0.0250485684922 21.855219712093
8.697200000000000 0.0250465691830 -1.736591328687 0.9996828180638 -79.94624803764 0.9996828180638 -79.94624803764 0.0250476065575 21.854952186941
8.697300000000000 0.0250456050551 -1.738290431434 0.9996828417112 -79.94723189646 0.9996828417112 -79.94723189646 0.0250466426548 21.854685599373
8.697400000000000 0.0250446389515 -1.739990700853 0.9996828654065 -79.94821587113 0.9996828654065 -79.94821587113 0.0250456767770 21.854419952690
8.697500000000000 0.0250436708681 -1.741692139548 0.9996828891497 -79.94919996190 0.9996828891497 -79.94919996190 0.0250447089200 21.854155249141
8.697600000000001 0.0250427007993 -1.743394750126 0.9996829129406 -79.95018416909 0.9996829129406 -79.95018416909 0.0250437390782 21.853891492339
8.697700000000001 0.0250417287379 -1.745098537925 0.9996829367799 -79.95116849312 0.9996829367799 -79.95116849312 0.0250427672444 21.853628684735
8.697800000000001 0.0250407546801 -1.746803505158 0.9996829606674 -79.95215293422 0.9996829606674 -79.95215293422 0.0250417934149 21.853366828773
8.697900000000001 0.0250397786202 -1.748509654925 0.9996829846032 -79.95313749274 0.9996829846032 -79.95313749274 0.0250408175838 21.853105927669
8.698000000000000 0.0250388005510 -1.750216992351 0.9996830085876 -79.95412216908 0.9996830085876 -79.95412216908 0.0250398397440 21.852845984258
8.698100000000000 0.0250378204669 -1.751925520243 0.9996830326207 -79.95510696358 0.9996830326207 -79.95510696358 0.0250388598900 21.852587001851
8.698200000000000 0.0250368383630 -1.753635241845 0.9996830567026 -79.95609187653 0.9996830567026 -79.95609187653 0.0250378780168 21.852328983015
8.698300000000000 0.0250358542339 -1.755346160858 0.9996830808335 -79.95707690824 0.9996830808335 -79.95707690824 0.0250368941190 21.852071929945
8.698400000000001 0.0250348680742 -1.757058279758 0.9996831050131 -79.95806205904 0.9996831050131 -79.95806205904 0.0250359081913 21.851815846462
8.698500000000001 0.0250338798789 -1.758771602667 0.9996831292421 -79.95904732921 0.9996831292421 -79.95904732921 0.0250349202285 21.851560734067
8.698600000000001 0.0250328896397 -1.760486134418 0.9996831535205 -79.96003271926 0.9996831535205 -79.96003271926 0.0250339302225 21.851306596930
8.698700000000001 0.0250318973515 -1.762201877706 0.9996831778483 -79.96101822946 0.9996831778483 -79.96101822946 0.0250329381682 21.851053438152
8.698800000000000 0.0250309030089 -1.763918835887 0.9996832022256 -79.96200386016 0.9996832022256 -79.96200386016 0.0250319440600 21.850801260607
8.698900000000000 0.0250299066072 -1.765637012685 0.9996832266528 -79.96298961161 0.9996832266528 -79.96298961161 0.0250309478934 21.850550065853
8.699000000000000 0.0250289081387 -1.767356411976 0.9996832511297 -79.96397548428 0.9996832511297 -79.96397548428 0.0250299496607 21.850299858607
8.699100000000001 0.0250279075989 -1.769077037300 0.9996832756567 -79.96496147844 0.9996832756567 -79.96496147844 0.0250289493572 21.850050640500
8.699200000000001 0.0250269049802 -1.770798892570 0.9996833002337 -79.96594759452 0.9996833002337 -79.96594759452 0.0250279469755 21.849802415878
8.699300000000001 0.0250259002781 -1.772521981084 0.9996833248611 -79.96693383279 0.9996833248611 -79.96693383279 0.0250269425111 21.849555186729
8.699400000000001 0.0250248934881 -1.774246305654 0.9996833495388 -79.96792019352 0.9996833495388 -79.96792019352 0.0250259359594 21.849308955580
8.699500000000000 0.0250238845998 -1.775971872613 0.9996833742672 -79.96890667732 0.9996833742672 -79.96890667732 0.0250249273100 21.849063727118
8.699600000000000 0.0250228736112 -1.777698683144 0.9996833990462 -79.96989328431 0.9996833990462 -79.96989328431 0.0250239165610 21.848819502975
8.699700000000000 0.0250218605137 -1.779426742657 0.9996834238762 -79.97088001499 0.9996834238762 -79.97088001499 0.0250229037038 21.848576287146
8.699800000000000 0.0250208453044 -1.781156052663 0.9996834487568 -79.97186686954 0.9996834487568 -79.97186686954 0.0250218887354 21.848334081700
8.699900000000001 0.0250198279725 -1.782886620217 0.9996834736888 -79.97285384859 0.9996834736888 -79.97285384859 0.0250208716451 21.848092891199
8.700000000000001 0.0250188085182 -1.784618445287 0.9996834986719 -79.97384095212 0.9996834986719 -79.97384095212 0.0250198524331 21.847852716164