! Sonnet Data File
! From: emgraph Version : 16.52
! From Project: 171117_Xmon_fullysym
! Data is De-embedded 
! Data File Written: 11/27/2017 00:27:56
!< HDATE 11/26/2017 21:47:59
!< MDATE 11/26/2017 21:47:59
!< PARAMS
!< Lj = 11.0
!< Gap = 1.0
!< Pwid = 2000.0
!< Airgap = 6.0
!< Width = 10.0
!< Lj1 = 10.76
!< END PARAMS
# GHZ S MA R 50.90000
8.76000000 0.021818 -4.205 0.999756 -80.72 0.999756 -80.72 0.021820 22.797
!< P1 F=8.76 Eeff=(6.44841381 -2.9796e-5) Z0=(50.9085048 1.17026e-4) R=0.0 C=0.0 
!< P2 F=8.76 Eeff=(6.44841381 -2.9796e-5) Z0=(50.9085048 1.17026e-4) R=0.0 C=0.0 
8.76005000 0.021810 -4.210 0.999756 -80.72 0.999756 -80.72 0.021812 22.800
8.76010000 0.021802 -4.215 0.999756 -80.72 0.999756 -80.72 0.021804 22.803
8.76015000 0.021794 -4.219 0.999756 -80.72 0.999756 -80.72 0.021797 22.806
8.76020000 0.021787 -4.224 0.999756 -80.72 0.999756 -80.72 0.021789 22.809
8.76025000 0.021779 -4.229 0.999757 -80.72 0.999757 -80.72 0.021781 22.812
8.76030000 0.021771 -4.233 0.999757 -80.72 0.999757 -80.72 0.021773 22.815
8.76035000 0.021763 -4.238 0.999757 -80.72 0.999757 -80.72 0.021765 22.818
8.76040000 0.021755 -4.243 0.999757 -80.72 0.999757 -80.72 0.021757 22.821
8.76045000 0.021746 -4.248 0.999757 -80.73 0.999757 -80.73 0.021749 22.824
8.76050000 0.021738 -4.252 0.999757 -80.73 0.999757 -80.73 0.021740 22.827
8.76055000 0.021730 -4.257 0.999757 -80.73 0.999757 -80.73 0.021732 22.830
8.76060000 0.021721 -4.262 0.999758 -80.73 0.999758 -80.73 0.021724 22.833
8.76065000 0.021713 -4.267 0.999758 -80.73 0.999758 -80.73 0.021715 22.837
8.76070000 0.021704 -4.272 0.999758 -80.73 0.999758 -80.73 0.021707 22.840
8.76075000 0.021696 -4.277 0.999758 -80.73 0.999758 -80.73 0.021698 22.843
8.76080000 0.021687 -4.282 0.999758 -80.73 0.999758 -80.73 0.021689 22.846
8.76085000 0.021678 -4.287 0.999758 -80.73 0.999758 -80.73 0.021680 22.850
8.76090000 0.021669 -4.292 0.999759 -80.73 0.999759 -80.73 0.021672 22.853
8.76095000 0.021660 -4.298 0.999759 -80.74 0.999759 -80.74 0.021663 22.856
8.76100000 0.021651 -4.303 0.999759 -80.74 0.999759 -80.74 0.021654 22.860
8.76105000 0.021642 -4.308 0.999759 -80.74 0.999759 -80.74 0.021644 22.863
8.76110000 0.021633 -4.313 0.999759 -80.74 0.999759 -80.74 0.021635 22.867
8.76115000 0.021624 -4.319 0.999759 -80.74 0.999759 -80.74 0.021626 22.870
8.76120000 0.021614 -4.324 0.999760 -80.74 0.999760 -80.74 0.021617 22.874
8.76125000 0.021605 -4.329 0.999760 -80.74 0.999760 -80.74 0.021607 22.877
8.76130000 0.021595 -4.335 0.999760 -80.74 0.999760 -80.74 0.021598 22.881
8.76135000 0.021586 -4.340 0.999760 -80.74 0.999760 -80.74 0.021588 22.885
8.76140000 0.021576 -4.346 0.999760 -80.74 0.999760 -80.74 0.021578 22.888
8.76145000 0.021566 -4.351 0.999760 -80.75 0.999760 -80.75 0.021568 22.892
8.76150000 0.021556 -4.357 0.999761 -80.75 0.999761 -80.75 0.021558 22.896
8.76155000 0.021546 -4.363 0.999761 -80.75 0.999761 -80.75 0.021548 22.900
8.76160000 0.021536 -4.369 0.999761 -80.75 0.999761 -80.75 0.021538 22.903
8.76165000 0.021525 -4.374 0.999761 -80.75 0.999761 -80.75 0.021528 22.907
8.76170000 0.021515 -4.380 0.999761 -80.75 0.999761 -80.75 0.021517 22.911
8.76175000 0.021504 -4.386 0.999761 -80.75 0.999761 -80.75 0.021507 22.915
8.76180000 0.021494 -4.392 0.999762 -80.75 0.999762 -80.75 0.021496 22.919
8.76185000 0.021483 -4.398 0.999762 -80.75 0.999762 -80.75 0.021485 22.923
8.76190000 0.021472 -4.404 0.999762 -80.75 0.999762 -80.75 0.021474 22.927
8.76195000 0.021461 -4.410 0.999762 -80.76 0.999762 -80.76 0.021463 22.932
8.76200000 0.021450 -4.416 0.999762 -80.76 0.999762 -80.76 0.021452 22.936
8.76205000 0.021438 -4.423 0.999763 -80.76 0.999763 -80.76 0.021441 22.940
8.76210000 0.021427 -4.429 0.999763 -80.76 0.999763 -80.76 0.021430 22.944
8.76215000 0.021415 -4.435 0.999763 -80.76 0.999763 -80.76 0.021418 22.949
8.76220000 0.021404 -4.442 0.999763 -80.76 0.999763 -80.76 0.021406 22.953
8.76225000 0.021392 -4.448 0.999763 -80.76 0.999763 -80.76 0.021394 22.958
8.76230000 0.021380 -4.455 0.999764 -80.76 0.999764 -80.76 0.021382 22.962
8.76235000 0.021368 -4.461 0.999764 -80.77 0.999764 -80.77 0.021370 22.967
8.76240000 0.021355 -4.468 0.999764 -80.77 0.999764 -80.77 0.021358 22.972
8.76245000 0.021343 -4.475 0.999764 -80.77 0.999764 -80.77 0.021345 22.976
8.76250000 0.021330 -4.482 0.999764 -80.77 0.999764 -80.77 0.021333 22.981
8.76255000 0.021317 -4.489 0.999765 -80.77 0.999765 -80.77 0.021320 22.986
8.76260000 0.021304 -4.496 0.999765 -80.77 0.999765 -80.77 0.021307 22.991
8.76265000 0.021291 -4.503 0.999765 -80.77 0.999765 -80.77 0.021294 22.996
8.76270000 0.021278 -4.510 0.999765 -80.77 0.999765 -80.77 0.021280 23.001
8.76275000 0.021264 -4.517 0.999765 -80.77 0.999765 -80.77 0.021267 23.006
8.76280000 0.021250 -4.524 0.999766 -80.78 0.999766 -80.78 0.021253 23.012
8.76285000 0.021236 -4.532 0.999766 -80.78 0.999766 -80.78 0.021239 23.017
8.76290000 0.021222 -4.539 0.999766 -80.78 0.999766 -80.78 0.021225 23.022
8.76295000 0.021208 -4.547 0.999766 -80.78 0.999766 -80.78 0.021211 23.028
8.76300000 0.021193 -4.555 0.999767 -80.78 0.999767 -80.78 0.021196 23.033
8.76305000 0.021178 -4.563 0.999767 -80.78 0.999767 -80.78 0.021181 23.039
8.76310000 0.021163 -4.571 0.999767 -80.78 0.999767 -80.78 0.021166 23.045
8.76315000 0.021148 -4.579 0.999767 -80.79 0.999767 -80.79 0.021151 23.051
8.76320000 0.021132 -4.587 0.999767 -80.79 0.999767 -80.79 0.021135 23.057
8.76325000 0.021117 -4.595 0.999768 -80.79 0.999768 -80.79 0.021120 23.063
8.76330000 0.021100 -4.604 0.999768 -80.79 0.999768 -80.79 0.021104 23.069
8.76335000 0.021084 -4.612 0.999768 -80.79 0.999768 -80.79 0.021087 23.075
8.76340000 0.021068 -4.621 0.999768 -80.79 0.999768 -80.79 0.021071 23.082
8.76345000 0.021051 -4.629 0.999769 -80.79 0.999769 -80.79 0.021054 23.088
8.76350000 0.021033 -4.638 0.999769 -80.80 0.999769 -80.80 0.021037 23.095
8.76355000 0.021016 -4.647 0.999769 -80.80 0.999769 -80.80 0.021019 23.101
8.76360000 0.020998 -4.657 0.999769 -80.80 0.999769 -80.80 0.021001 23.108
8.76365000 0.020980 -4.666 0.999770 -80.80 0.999770 -80.80 0.020983 23.115
8.76370000 0.020961 -4.675 0.999770 -80.80 0.999770 -80.80 0.020965 23.123
8.76375000 0.020943 -4.685 0.999770 -80.80 0.999770 -80.80 0.020946 23.130
8.76380000 0.020923 -4.695 0.999770 -80.80 0.999770 -80.80 0.020927 23.137
8.76385000 0.020904 -4.705 0.999771 -80.81 0.999771 -80.81 0.020907 23.145
8.76390000 0.020884 -4.715 0.999771 -80.81 0.999771 -80.81 0.020887 23.153
8.76395000 0.020863 -4.726 0.999771 -80.81 0.999771 -80.81 0.020867 23.161
8.76400000 0.020843 -4.736 0.999772 -80.81 0.999772 -80.81 0.020846 23.169
8.76405000 0.020821 -4.747 0.999772 -80.81 0.999772 -80.81 0.020825 23.177
8.76410000 0.020800 -4.758 0.999772 -80.81 0.999772 -80.81 0.020804 23.186
8.76415000 0.020778 -4.769 0.999772 -80.82 0.999772 -80.82 0.020781 23.194
8.76420000 0.020755 -4.780 0.999773 -80.82 0.999773 -80.82 0.020759 23.203
8.76425000 0.020732 -4.792 0.999773 -80.82 0.999773 -80.82 0.020736 23.212
8.76430000 0.020708 -4.804 0.999773 -80.82 0.999773 -80.82 0.020712 23.222
8.76435000 0.020684 -4.816 0.999774 -80.82 0.999774 -80.82 0.020688 23.231
8.76440000 0.020659 -4.828 0.999774 -80.83 0.999774 -80.83 0.020663 23.241
8.76445000 0.020634 -4.841 0.999774 -80.83 0.999774 -80.83 0.020638 23.251
8.76450000 0.020608 -4.854 0.999774 -80.83 0.999774 -80.83 0.020612 23.262
8.76455000 0.020582 -4.867 0.999775 -80.83 0.999775 -80.83 0.020586 23.272
8.76460000 0.020554 -4.881 0.999775 -80.83 0.999775 -80.83 0.020559 23.283
8.76465000 0.020526 -4.894 0.999775 -80.84 0.999775 -80.84 0.020531 23.294
8.76470000 0.020498 -4.909 0.999776 -80.84 0.999776 -80.84 0.020502 23.306
8.76475000 0.020468 -4.923 0.999776 -80.84 0.999776 -80.84 0.020473 23.318
8.76480000 0.020438 -4.938 0.999776 -80.84 0.999776 -80.84 0.020443 23.330
8.76485000 0.020407 -4.953 0.999777 -80.84 0.999777 -80.84 0.020412 23.343
8.76490000 0.020375 -4.969 0.999777 -80.85 0.999777 -80.85 0.020380 23.356
8.76495000 0.020342 -4.985 0.999777 -80.85 0.999777 -80.85 0.020348 23.369
8.76500000 0.020309 -5.002 0.999778 -80.85 0.999778 -80.85 0.020314 23.383
8.76505000 0.020274 -5.019 0.999778 -80.85 0.999778 -80.85 0.020279 23.397
8.76510000 0.020238 -5.036 0.999778 -80.86 0.999778 -80.86 0.020244 23.412
8.76515000 0.020201 -5.054 0.999779 -80.86 0.999779 -80.86 0.020207 23.428
8.76520000 0.020163 -5.073 0.999779 -80.86 0.999779 -80.86 0.020169 23.444
8.76525000 0.020124 -5.092 0.999779 -80.86 0.999779 -80.86 0.020130 23.460
8.76530000 0.020083 -5.112 0.999780 -80.87 0.999780 -80.87 0.020089 23.477
8.76535000 0.020042 -5.132 0.999780 -80.87 0.999780 -80.87 0.020048 23.495
8.76540000 0.019998 -5.153 0.999780 -80.87 0.999780 -80.87 0.020005 23.514
8.76545000 0.019953 -5.175 0.999780 -80.88 0.999780 -80.88 0.019960 23.533
8.76550000 0.019907 -5.198 0.999781 -80.88 0.999781 -80.88 0.019914 23.553
8.76555000 0.019859 -5.221 0.999781 -80.88 0.999781 -80.88 0.019866 23.574
8.76560000 0.019809 -5.246 0.999781 -80.89 0.999781 -80.89 0.019816 23.596
8.76565000 0.019757 -5.271 0.999782 -80.89 0.999782 -80.89 0.019764 23.619
8.76570000 0.019703 -5.297 0.999782 -80.89 0.999782 -80.89 0.019711 23.642
8.76575000 0.019647 -5.324 0.999782 -80.90 0.999782 -80.90 0.019655 23.668
8.76580000 0.019589 -5.353 0.999782 -80.90 0.999782 -80.90 0.019597 23.694
8.76585000 0.019528 -5.382 0.999783 -80.90 0.999783 -80.90 0.019536 23.721
8.76590000 0.019464 -5.413 0.999783 -80.91 0.999783 -80.91 0.019473 23.750
8.76595000 0.019398 -5.446 0.999783 -80.91 0.999783 -80.91 0.019407 23.781
8.76600000 0.019329 -5.480 0.999783 -80.92 0.999783 -80.92 0.019339 23.813
8.76605000 0.019256 -5.515 0.999783 -80.92 0.999783 -80.92 0.019266 23.848
8.76610000 0.019180 -5.552 0.999783 -80.93 0.999783 -80.93 0.019191 23.884
8.76615000 0.019101 -5.591 0.999784 -80.93 0.999784 -80.93 0.019112 23.922
8.76620000 0.019017 -5.633 0.999784 -80.94 0.999784 -80.94 0.019028 23.963
8.76625000 0.018928 -5.676 0.999783 -80.94 0.999783 -80.94 0.018941 24.006
8.76630000 0.018835 -5.722 0.999783 -80.95 0.999783 -80.95 0.018848 24.053
8.76635000 0.018737 -5.771 0.999783 -80.95 0.999783 -80.95 0.018751 24.103
8.76640000 0.018633 -5.822 0.999783 -80.96 0.999783 -80.96 0.018648 24.156
8.76645000 0.018523 -5.877 0.999783 -80.97 0.999783 -80.97 0.018539 24.214
8.76650000 0.018407 -5.936 0.999782 -80.98 0.999782 -80.98 0.018423 24.276
8.76655000 0.018282 -5.998 0.999781 -80.98 0.999781 -80.98 0.018300 24.343
8.76660000 0.018150 -6.065 0.999781 -80.99 0.999781 -80.99 0.018168 24.416
8.76665000 0.018008 -6.137 0.999780 -81.00 0.999780 -81.00 0.018028 24.496
8.76670000 0.017857 -6.215 0.999778 -81.01 0.999778 -81.01 0.017878 24.583
8.76675000 0.017694 -6.299 0.999777 -81.02 0.999777 -81.02 0.017717 24.679
8.76680000 0.017519 -6.390 0.999775 -81.03 0.999775 -81.03 0.017544 24.785
8.76685000 0.017330 -6.490 0.999772 -81.04 0.999772 -81.04 0.017357 24.903
8.76690000 0.017124 -6.599 0.999770 -81.05 0.999770 -81.05 0.017154 25.035
8.76695000 0.016901 -6.719 0.999766 -81.07 0.999766 -81.07 0.016934 25.183
8.76700000 0.016658 -6.852 0.999762 -81.08 0.999762 -81.08 0.016693 25.350
8.76705000 0.016390 -7.000 0.999757 -81.10 0.999757 -81.10 0.016430 25.542
8.76710000 0.016096 -7.166 0.999751 -81.11 0.999751 -81.11 0.016141 25.762
8.76715000 0.015770 -7.354 0.999743 -81.13 0.999743 -81.13 0.015820 26.019
8.76720000 0.015407 -7.568 0.999734 -81.16 0.999734 -81.16 0.015464 26.321
8.76725000 0.015000 -7.815 0.999722 -81.18 0.999722 -81.18 0.015066 26.681
8.76730000 0.014541 -8.103 0.999707 -81.21 0.999707 -81.21 0.014618 27.118
8.76735000 0.014019 -8.445 0.999688 -81.24 0.999688 -81.24 0.014109 27.657
8.76740000 0.013419 -8.858 0.999664 -81.27 0.999664 -81.27 0.013527 28.338
8.76745000 0.012723 -9.369 0.999633 -81.31 0.999633 -81.31 0.012856 29.222
8.76750000 0.011905 -10.02 0.999591 -81.36 0.999591 -81.36 0.012073 30.409
8.76755000 0.010932 -10.88 0.999535 -81.42 0.999535 -81.42 0.011151 32.076
8.76760000 0.009754 -12.09 0.999457 -81.49 0.999457 -81.49 0.010052 34.563
8.76765000 0.008299 -13.95 0.999346 -81.57 0.999346 -81.57 0.008733 38.595
8.76770000 0.006464 -17.29 0.999181 -81.68 0.999181 -81.68 0.007161 45.986
8.76775000 0.004103 -25.55 0.998925 -81.82 0.998925 -81.82 0.005434 62.126
8.76780000 0.001514 -77.70 0.998501 -82.01 0.998501 -82.01 0.004484 100.38
8.76785000 0.004661 -169.1 0.997734 -82.29 0.997734 -82.29 0.006968 144.86
8.76790000 0.012299 177.78 0.996152 -82.73 0.996152 -82.73 0.014004 164.28
8.76795000 0.026420 170.72 0.992126 -83.52 0.992126 -83.52 0.028059 170.32
8.76800000 0.059484 160.79 0.976967 -85.27 0.976967 -85.27 0.061552 167.23
8.76805000 0.179217 125.00 0.852405 -88.56 0.852405 -88.56 0.183187 135.60
8.76810000 0.157942 35.582 0.919717 -73.82 0.919717 -73.82 0.160363 48.978
8.76815000 0.087388 14.850 0.981559 -77.06 0.981559 -77.06 0.088370 30.243
8.76820000 0.063952 8.4800 0.992018 -78.37 0.992018 -78.37 0.064502 25.372
8.76825000 0.052748 5.3908 0.995432 -79.01 0.995432 -79.01 0.053105 23.449
8.76830000 0.046228 3.5460 0.996960 -79.38 0.996960 -79.38 0.046482 22.538
8.76835000 0.041971 2.3090 0.997777 -79.63 0.997777 -79.63 0.042162 22.065
8.76840000 0.038977 1.4165 0.998269 -79.80 0.998269 -79.80 0.039126 21.809
8.76845000 0.036756 0.7392 0.998588 -79.93 0.998588 -79.93 0.036875 21.672
8.76850000 0.035043 0.2059 0.998808 -80.03 0.998808 -80.03 0.035142 21.601
8.76855000 0.033682 -0.226 0.998967 -80.11 0.998967 -80.11 0.033765 21.571
8.76860000 0.032574 -0.583 0.999086 -80.18 0.999086 -80.18 0.032644 21.566
8.76865000 0.031654 -0.885 0.999178 -80.23 0.999178 -80.23 0.031716 21.576
8.76870000 0.030879 -1.142 0.999250 -80.27 0.999250 -80.27 0.030932 21.595
8.76875000 0.030216 -1.365 0.999308 -80.31 0.999308 -80.31 0.030263 21.620
8.76880000 0.029643 -1.561 0.999355 -80.35 0.999355 -80.35 0.029685 21.649
8.76885000 0.029142 -1.733 0.999395 -80.38 0.999395 -80.38 0.029180 21.679
8.76890000 0.028701 -1.887 0.999428 -80.40 0.999428 -80.40 0.028735 21.711
8.76895000 0.028309 -2.025 0.999456 -80.43 0.999456 -80.43 0.028340 21.743
8.76900000 0.027958 -2.149 0.999481 -80.45 0.999481 -80.45 0.027987 21.774
8.76905000 0.027643 -2.262 0.999502 -80.46 0.999502 -80.46 0.027669 21.805
8.76910000 0.027358 -2.365 0.999520 -80.48 0.999520 -80.48 0.027381 21.835
8.76915000 0.027098 -2.459 0.999536 -80.50 0.999536 -80.50 0.027120 21.865
8.76920000 0.026861 -2.546 0.999550 -80.51 0.999550 -80.51 0.026882 21.893
8.76925000 0.026644 -2.626 0.999563 -80.52 0.999563 -80.52 0.026663 21.921
8.76930000 0.026444 -2.700 0.999575 -80.54 0.999575 -80.54 0.026462 21.947
8.76935000 0.026259 -2.769 0.999585 -80.55 0.999585 -80.55 0.026276 21.973
8.76940000 0.026088 -2.834 0.999594 -80.56 0.999594 -80.56 0.026103 21.998
8.76945000 0.025928 -2.894 0.999603 -80.57 0.999603 -80.57 0.025943 22.022
8.76950000 0.025780 -2.950 0.999610 -80.58 0.999610 -80.58 0.025794 22.045
8.76955000 0.025641 -3.004 0.999617 -80.59 0.999617 -80.59 0.025654 22.067
8.76960000 0.025511 -3.054 0.999624 -80.59 0.999624 -80.59 0.025523 22.088
8.76965000 0.025389 -3.101 0.999630 -80.60 0.999630 -80.60 0.025400 22.109
8.76970000 0.025274 -3.146 0.999635 -80.61 0.999635 -80.61 0.025285 22.129
8.76975000 0.025165 -3.188 0.999640 -80.61 0.999640 -80.61 0.025176 22.148
8.76980000 0.025063 -3.229 0.999645 -80.62 0.999645 -80.62 0.025073 22.166
8.76985000 0.024966 -3.267 0.999649 -80.63 0.999649 -80.63 0.024976 22.184
8.76990000 0.024874 -3.304 0.999654 -80.63 0.999654 -80.63 0.024883 22.202
8.76995000 0.024786 -3.339 0.999657 -80.64 0.999657 -80.64 0.024795 22.219
8.77000000 0.024703 -3.372 0.999661 -80.64 0.999661 -80.64 0.024712 22.235
8.77005000 0.024624 -3.404 0.999664 -80.65 0.999664 -80.65 0.024633 22.251
8.77010000 0.024549 -3.435 0.999668 -80.65 0.999668 -80.65 0.024557 22.266
8.77015000 0.024476 -3.464 0.999671 -80.66 0.999671 -80.66 0.024484 22.281
8.77020000 0.024408 -3.492 0.999673 -80.66 0.999673 -80.66 0.024415 22.295
8.77025000 0.024342 -3.520 0.999676 -80.67 0.999676 -80.67 0.024349 22.309
8.77030000 0.024278 -3.546 0.999679 -80.67 0.999679 -80.67 0.024285 22.323
8.77035000 0.024218 -3.571 0.999681 -80.68 0.999681 -80.68 0.024225 22.336
8.77040000 0.024159 -3.596 0.999683 -80.68 0.999683 -80.68 0.024166 22.349
8.77045000 0.024103 -3.619 0.999685 -80.68 0.999685 -80.68 0.024110 22.361
8.77050000 0.024049 -3.642 0.999687 -80.69 0.999687 -80.69 0.024056 22.374
8.77055000 0.023997 -3.664 0.999689 -80.69 0.999689 -80.69 0.024003 22.386
8.77060000 0.023947 -3.685 0.999691 -80.69 0.999691 -80.69 0.023953 22.397
8.77065000 0.023899 -3.706 0.999693 -80.70 0.999693 -80.70 0.023904 22.409
8.77070000 0.023852 -3.726 0.999695 -80.70 0.999695 -80.70 0.023858 22.420
8.77075000 0.023807 -3.746 0.999696 -80.70 0.999696 -80.70 0.023812 22.431
8.77080000 0.023763 -3.765 0.999698 -80.71 0.999698 -80.71 0.023768 22.441
8.77085000 0.023721 -3.783 0.999700 -80.71 0.999700 -80.71 0.023726 22.452
8.77090000 0.023679 -3.801 0.999701 -80.71 0.999701 -80.71 0.023685 22.462
8.77095000 0.023640 -3.819 0.999702 -80.71 0.999702 -80.71 0.023645 22.472
8.77100000 0.023601 -3.836 0.999704 -80.72 0.999704 -80.72 0.023606 22.481
8.77105000 0.023564 -3.852 0.999705 -80.72 0.999705 -80.72 0.023569 22.491
8.77110000 0.023527 -3.869 0.999706 -80.72 0.999706 -80.72 0.023532 22.500
8.77115000 0.023492 -3.885 0.999708 -80.72 0.999708 -80.72 0.023497 22.509
8.77120000 0.023457 -3.900 0.999709 -80.73 0.999709 -80.73 0.023462 22.518
8.77125000 0.023424 -3.915 0.999710 -80.73 0.999710 -80.73 0.023428 22.527
8.77130000 0.023391 -3.930 0.999711 -80.73 0.999711 -80.73 0.023396 22.536
8.77135000 0.023359 -3.945 0.999712 -80.73 0.999712 -80.73 0.023364 22.544
8.77140000 0.023328 -3.959 0.999713 -80.74 0.999713 -80.74 0.023333 22.553
8.77145000 0.023298 -3.973 0.999714 -80.74 0.999714 -80.74 0.023302 22.561
8.77150000 0.023269 -3.987 0.999715 -80.74 0.999715 -80.74 0.023273 22.569
8.77155000 0.023240 -4.000 0.999716 -80.74 0.999716 -80.74 0.023244 22.577
8.77160000 0.023212 -4.013 0.999717 -80.75 0.999717 -80.75 0.023216 22.585
8.77165000 0.023184 -4.026 0.999718 -80.75 0.999718 -80.75 0.023188 22.593
8.77170000 0.023157 -4.039 0.999718 -80.75 0.999718 -80.75 0.023161 22.600
8.77175000 0.023131 -4.051 0.999719 -80.75 0.999719 -80.75 0.023135 22.608
8.77180000 0.023105 -4.064 0.999720 -80.75 0.999720 -80.75 0.023109 22.615
8.77185000 0.023080 -4.076 0.999721 -80.76 0.999721 -80.76 0.023084 22.623
8.77190000 0.023055 -4.088 0.999722 -80.76 0.999722 -80.76 0.023059 22.630
8.77195000 0.023031 -4.099 0.999722 -80.76 0.999722 -80.76 0.023035 22.637
8.77200000 0.023007 -4.111 0.999723 -80.76 0.999723 -80.76 0.023011 22.644
8.77205000 0.022984 -4.122 0.999724 -80.76 0.999724 -80.76 0.022988 22.651
8.77210000 0.022961 -4.133 0.999724 -80.76 0.999724 -80.76 0.022965 22.658
8.77215000 0.022939 -4.144 0.999725 -80.77 0.999725 -80.77 0.022942 22.664
8.77220000 0.022917 -4.155 0.999726 -80.77 0.999726 -80.77 0.022920 22.671
8.77225000 0.022895 -4.166 0.999726 -80.77 0.999726 -80.77 0.022899 22.678
8.77230000 0.022874 -4.176 0.999727 -80.77 0.999727 -80.77 0.022877 22.684
8.77235000 0.022853 -4.187 0.999728 -80.77 0.999728 -80.77 0.022857 22.691
8.77240000 0.022833 -4.197 0.999728 -80.77 0.999728 -80.77 0.022836 22.697
8.77245000 0.022812 -4.207 0.999729 -80.78 0.999729 -80.78 0.022816 22.703
8.77250000 0.022793 -4.217 0.999729 -80.78 0.999729 -80.78 0.022796 22.709
8.77255000 0.022773 -4.227 0.999730 -80.78 0.999730 -80.78 0.022776 22.716
8.77260000 0.022754 -4.237 0.999731 -80.78 0.999731 -80.78 0.022757 22.722
8.77265000 0.022735 -4.247 0.999731 -80.78 0.999731 -80.78 0.022738 22.728
8.77270000 0.022716 -4.256 0.999732 -80.78 0.999732 -80.78 0.022720 22.734
8.77275000 0.022698 -4.266 0.999732 -80.79 0.999732 -80.79 0.022701 22.740
8.77280000 0.022680 -4.275 0.999733 -80.79 0.999733 -80.79 0.022683 22.746
8.77285000 0.022662 -4.284 0.999733 -80.79 0.999733 -80.79 0.022665 22.752
8.77290000 0.022644 -4.294 0.999734 -80.79 0.999734 -80.79 0.022648 22.757
8.77295000 0.022627 -4.303 0.999734 -80.79 0.999734 -80.79 0.022630 22.763
8.77300000 0.022610 -4.312 0.999735 -80.79 0.999735 -80.79 0.022613 22.769
8.77305000 0.022593 -4.321 0.999735 -80.79 0.999735 -80.79 0.022596 22.774
8.77310000 0.022577 -4.330 0.999736 -80.80 0.999736 -80.80 0.022580 22.780
8.77315000 0.022560 -4.338 0.999736 -80.80 0.999736 -80.80 0.022563 22.786
8.77320000 0.022544 -4.347 0.999736 -80.80 0.999736 -80.80 0.022547 22.791
8.77325000 0.022528 -4.356 0.999737 -80.80 0.999737 -80.80 0.022531 22.797
8.77330000 0.022512 -4.364 0.999737 -80.80 0.999737 -80.80 0.022515 22.802
8.77335000 0.022496 -4.373 0.999738 -80.80 0.999738 -80.80 0.022499 22.808
8.77340000 0.022481 -4.381 0.999738 -80.80 0.999738 -80.80 0.022484 22.813
8.77345000 0.022466 -4.390 0.999739 -80.81 0.999739 -80.81 0.022469 22.818
8.77350000 0.022450 -4.398 0.999739 -80.81 0.999739 -80.81 0.022454 22.824
8.77355000 0.022436 -4.406 0.999739 -80.81 0.999739 -80.81 0.022439 22.829
8.77360000 0.022421 -4.414 0.999740 -80.81 0.999740 -80.81 0.022424 22.834
8.77365000 0.022406 -4.422 0.999740 -80.81 0.999740 -80.81 0.022409 22.839
8.77370000 0.022392 -4.430 0.999741 -80.81 0.999741 -80.81 0.022395 22.845
8.77375000 0.022377 -4.438 0.999741 -80.81 0.999741 -80.81 0.022380 22.850
8.77380000 0.022363 -4.446 0.999741 -80.81 0.999741 -80.81 0.022366 22.855
8.77385000 0.022349 -4.454 0.999742 -80.82 0.999742 -80.82 0.022352 22.860
8.77390000 0.022335 -4.462 0.999742 -80.82 0.999742 -80.82 0.022338 22.865
8.77395000 0.022321 -4.470 0.999742 -80.82 0.999742 -80.82 0.022324 22.870
8.77400000 0.022308 -4.478 0.999743 -80.82 0.999743 -80.82 0.022311 22.875
8.77405000 0.022294 -4.486 0.999743 -80.82 0.999743 -80.82 0.022297 22.880
8.77410000 0.022281 -4.493 0.999743 -80.82 0.999743 -80.82 0.022284 22.885
8.77415000 0.022268 -4.501 0.999744 -80.82 0.999744 -80.82 0.022270 22.890
8.77420000 0.022254 -4.509 0.999744 -80.82 0.999744 -80.82 0.022257 22.895
8.77425000 0.022241 -4.516 0.999744 -80.83 0.999744 -80.83 0.022244 22.900
8.77430000 0.022228 -4.524 0.999745 -80.83 0.999745 -80.83 0.022231 22.905
8.77435000 0.022216 -4.531 0.999745 -80.83 0.999745 -80.83 0.022218 22.910
8.77440000 0.022203 -4.539 0.999745 -80.83 0.999745 -80.83 0.022206 22.915
8.77445000 0.022190 -4.546 0.999746 -80.83 0.999746 -80.83 0.022193 22.919
8.77450000 0.022178 -4.553 0.999746 -80.83 0.999746 -80.83 0.022180 22.924
8.77455000 0.022165 -4.561 0.999746 -80.83 0.999746 -80.83 0.022168 22.929
8.77460000 0.022153 -4.568 0.999747 -80.83 0.999747 -80.83 0.022156 22.934
8.77465000 0.022141 -4.575 0.999747 -80.84 0.999747 -80.84 0.022143 22.939
8.77470000 0.022128 -4.583 0.999747 -80.84 0.999747 -80.84 0.022131 22.944
8.77475000 0.022116 -4.590 0.999748 -80.84 0.999748 -80.84 0.022119 22.948
8.77480000 0.022104 -4.597 0.999748 -80.84 0.999748 -80.84 0.022107 22.953
8.77485000 0.022092 -4.604 0.999748 -80.84 0.999748 -80.84 0.022095 22.958
8.77490000 0.022081 -4.611 0.999748 -80.84 0.999748 -80.84 0.022083 22.962
8.77495000 0.022069 -4.619 0.999749 -80.84 0.999749 -80.84 0.022072 22.967
8.77500000 0.022057 -4.626 0.999749 -80.84 0.999749 -80.84 0.022060 22.972
8.77505000 0.022046 -4.633 0.999749 -80.84 0.999749 -80.84 0.022048 22.977
8.77510000 0.022034 -4.640 0.999750 -80.85 0.999750 -80.85 0.022037 22.981
8.77515000 0.022023 -4.647 0.999750 -80.85 0.999750 -80.85 0.022025 22.986
8.77520000 0.022011 -4.654 0.999750 -80.85 0.999750 -80.85 0.022014 22.991
8.77525000 0.022000 -4.661 0.999750 -80.85 0.999750 -80.85 0.022003 22.995
8.77530000 0.021989 -4.668 0.999751 -80.85 0.999751 -80.85 0.021991 23.000
8.77535000 0.021977 -4.675 0.999751 -80.85 0.999751 -80.85 0.021980 23.004
8.77540000 0.021966 -4.682 0.999751 -80.85 0.999751 -80.85 0.021969 23.009
8.77545000 0.021955 -4.689 0.999751 -80.85 0.999751 -80.85 0.021958 23.014
8.77550000 0.021944 -4.696 0.999752 -80.86 0.999752 -80.86 0.021947 23.018
8.77555000 0.021933 -4.703 0.999752 -80.86 0.999752 -80.86 0.021936 23.023
8.77560000 0.021922 -4.709 0.999752 -80.86 0.999752 -80.86 0.021925 23.027
8.77565000 0.021911 -4.716 0.999752 -80.86 0.999752 -80.86 0.021914 23.032
8.77570000 0.021900 -4.723 0.999753 -80.86 0.999753 -80.86 0.021903 23.037
8.77575000 0.021890 -4.730 0.999753 -80.86 0.999753 -80.86 0.021892 23.041
8.77580000 0.021879 -4.737 0.999753 -80.86 0.999753 -80.86 0.021882 23.046
8.77585000 0.021868 -4.744 0.999753 -80.86 0.999753 -80.86 0.021871 23.050
8.77590000 0.021858 -4.750 0.999754 -80.86 0.999754 -80.86 0.021860 23.055
8.77595000 0.021847 -4.757 0.999754 -80.86 0.999754 -80.86 0.021850 23.059
8.77600000 0.021837 -4.764 0.999754 -80.87 0.999754 -80.87 0.021839 23.064
8.77605000 0.021826 -4.771 0.999754 -80.87 0.999754 -80.87 0.021829 23.068
8.77610000 0.021816 -4.777 0.999755 -80.87 0.999755 -80.87 0.021818 23.073
8.77615000 0.021805 -4.784 0.999755 -80.87 0.999755 -80.87 0.021808 23.077
8.77620000 0.021795 -4.791 0.999755 -80.87 0.999755 -80.87 0.021798 23.082
8.77625000 0.021785 -4.798 0.999755 -80.87 0.999755 -80.87 0.021787 23.087
8.77630000 0.021774 -4.804 0.999756 -80.87 0.999756 -80.87 0.021777 23.091
8.77635000 0.021764 -4.811 0.999756 -80.87 0.999756 -80.87 0.021767 23.096
8.77640000 0.021754 -4.818 0.999756 -80.87 0.999756 -80.87 0.021757 23.100
8.77645000 0.021744 -4.824 0.999756 -80.88 0.999756 -80.88 0.021747 23.105
8.77650000 0.021734 -4.831 0.999757 -80.88 0.999757 -80.88 0.021736 23.109
8.77655000 0.021724 -4.838 0.999757 -80.88 0.999757 -80.88 0.021726 23.114
8.77660000 0.021714 -4.844 0.999757 -80.88 0.999757 -80.88 0.021716 23.118
8.77665000 0.021704 -4.851 0.999757 -80.88 0.999757 -80.88 0.021706 23.123
8.77670000 0.021694 -4.858 0.999758 -80.88 0.999758 -80.88 0.021696 23.127
8.77675000 0.021684 -4.864 0.999758 -80.88 0.999758 -80.88 0.021686 23.132
8.77680000 0.021674 -4.871 0.999758 -80.88 0.999758 -80.88 0.021676 23.136
8.77685000 0.021664 -4.878 0.999758 -80.88 0.999758 -80.88 0.021666 23.141
8.77690000 0.021654 -4.884 0.999758 -80.89 0.999758 -80.89 0.021657 23.145
8.77695000 0.021644 -4.891 0.999759 -80.89 0.999759 -80.89 0.021647 23.150
8.77700000 0.021634 -4.898 0.999759 -80.89 0.999759 -80.89 0.021637 23.154
8.77705000 0.021624 -4.904 0.999759 -80.89 0.999759 -80.89 0.021627 23.159
8.77710000 0.021615 -4.911 0.999759 -80.89 0.999759 -80.89 0.021617 23.163
8.77715000 0.021605 -4.918 0.999760 -80.89 0.999760 -80.89 0.021608 23.168
8.77720000 0.021595 -4.924 0.999760 -80.89 0.999760 -80.89 0.021598 23.172
8.77725000 0.021586 -4.931 0.999760 -80.89 0.999760 -80.89 0.021588 23.177
8.77730000 0.021576 -4.937 0.999760 -80.89 0.999760 -80.89 0.021578 23.181
8.77735000 0.021566 -4.944 0.999760 -80.89 0.999760 -80.89 0.021569 23.186
8.77740000 0.021557 -4.951 0.999761 -80.90 0.999761 -80.90 0.021559 23.190
8.77745000 0.021547 -4.957 0.999761 -80.90 0.999761 -80.90 0.021550 23.195
8.77750000 0.021537 -4.964 0.999761 -80.90 0.999761 -80.90 0.021540 23.200
8.77755000 0.021528 -4.970 0.999761 -80.90 0.999761 -80.90 0.021530 23.204
8.77760000 0.021518 -4.977 0.999762 -80.90 0.999762 -80.90 0.021521 23.209
8.77765000 0.021509 -4.984 0.999762 -80.90 0.999762 -80.90 0.021511 23.213
8.77770000 0.021499 -4.990 0.999762 -80.90 0.999762 -80.90 0.021502 23.218
8.77775000 0.021490 -4.997 0.999762 -80.90 0.999762 -80.90 0.021492 23.222
8.77780000 0.021480 -5.004 0.999762 -80.90 0.999762 -80.90 0.021483 23.227
8.77785000 0.021471 -5.010 0.999763 -80.90 0.999763 -80.90 0.021473 23.231
8.77790000 0.021461 -5.017 0.999763 -80.91 0.999763 -80.91 0.021464 23.236
8.77795000 0.021452 -5.023 0.999763 -80.91 0.999763 -80.91 0.021455 23.240
8.77800000 0.021442 -5.030 0.999763 -80.91 0.999763 -80.91 0.021445 23.245
8.77805000 0.021433 -5.037 0.999763 -80.91 0.999763 -80.91 0.021436 23.250
8.77810000 0.021424 -5.043 0.999764 -80.91 0.999764 -80.91 0.021426 23.254
8.77815000 0.021414 -5.050 0.999764 -80.91 0.999764 -80.91 0.021417 23.259
8.77820000 0.021405 -5.057 0.999764 -80.91 0.999764 -80.91 0.021408 23.263
8.77825000 0.021396 -5.063 0.999764 -80.91 0.999764 -80.91 0.021398 23.268
8.77830000 0.021386 -5.070 0.999764 -80.91 0.999764 -80.91 0.021389 23.273
8.77835000 0.021377 -5.076 0.999765 -80.91 0.999765 -80.91 0.021380 23.277
8.77840000 0.021368 -5.083 0.999765 -80.92 0.999765 -80.92 0.021370 23.282
8.77845000 0.021358 -5.090 0.999765 -80.92 0.999765 -80.92 0.021361 23.286
8.77850000 0.021349 -5.096 0.999765 -80.92 0.999765 -80.92 0.021352 23.291
8.77855000 0.021340 -5.103 0.999765 -80.92 0.999765 -80.92 0.021342 23.296
8.77860000 0.021330 -5.110 0.999766 -80.92 0.999766 -80.92 0.021333 23.300
8.77865000 0.021321 -5.116 0.999766 -80.92 0.999766 -80.92 0.021324 23.305
8.77870000 0.021312 -5.123 0.999766 -80.92 0.999766 -80.92 0.021315 23.310
8.77875000 0.021303 -5.130 0.999766 -80.92 0.999766 -80.92 0.021305 23.314
8.77880000 0.021293 -5.136 0.999766 -80.92 0.999766 -80.92 0.021296 23.319
8.77885000 0.021284 -5.143 0.999767 -80.92 0.999767 -80.92 0.021287 23.324
8.77890000 0.021275 -5.150 0.999767 -80.93 0.999767 -80.93 0.021278 23.328
8.77895000 0.021266 -5.156 0.999767 -80.93 0.999767 -80.93 0.021268 23.333
8.77900000 0.021256 -5.163 0.999767 -80.93 0.999767 -80.93 0.021259 23.338
8.77905000 0.021247 -5.170 0.999767 -80.93 0.999767 -80.93 0.021250 23.342
8.77910000 0.021238 -5.177 0.999768 -80.93 0.999768 -80.93 0.021241 23.347
8.77915000 0.021229 -5.183 0.999768 -80.93 0.999768 -80.93 0.021232 23.352
8.77920000 0.021220 -5.190 0.999768 -80.93 0.999768 -80.93 0.021222 23.357
8.77925000 0.021210 -5.197 0.999768 -80.93 0.999768 -80.93 0.021213 23.361
8.77930000 0.021201 -5.204 0.999768 -80.93 0.999768 -80.93 0.021204 23.366
8.77935000 0.021192 -5.210 0.999769 -80.93 0.999769 -80.93 0.021195 23.371
8.77940000 0.021183 -5.217 0.999769 -80.94 0.999769 -80.94 0.021186 23.376
8.77945000 0.021174 -5.224 0.999769 -80.94 0.999769 -80.94 0.021176 23.380
8.77950000 0.021165 -5.231 0.999769 -80.94 0.999769 -80.94 0.021167 23.385
8.77955000 0.021155 -5.237 0.999769 -80.94 0.999769 -80.94 0.021158 23.390
8.77960000 0.021146 -5.244 0.999770 -80.94 0.999770 -80.94 0.021149 23.395