! Sonnet Data File
! From: emgraph Version : 16.52
! From Project: 171117_Xmon_fullysym
! Data is De-embedded 
! Data File Written: 11/26/2017 17:14:24
!< HDATE 11/22/2017 16:48:52
!< MDATE 11/23/2017 10:16:42
!< PARAMS
!< Lj = 11.0
!< Gap = 1.0
!< Pwid = 2000.0
!< Airgap = 6.0
!< Width = 10.0
!< Lj1 = 9.8
!< END PARAMS
# GHZ S MA R 50.90000
8.750000000000000 0.0240431135267 -2.946487923463 0.9997068285113 -80.49482196167 0.9997068285130 -80.49482196152 0.0240444902127 21.971055838285
!< P1 F=8.75 Eeff=(6.44841643 -2.9796e-5) Z0=(50.9085185 1.17018e-4) R=0.0 C=0.0 
!< P2 F=8.75 Eeff=(6.44841643 -2.9796e-5) Z0=(50.9085185 1.17018e-4) R=0.0 C=0.0 
8.750100000000000 0.0240388628490 -2.950251594229 0.9997069273065 -80.49599922820 0.9997069273065 -80.49599922820 0.0240402412769 21.972482327348
8.750200000000001 0.0240345954211 -2.954026429736 0.9997070264679 -80.49717748272 0.9997070264679 -80.49717748272 0.0240359755994 21.973918090845
8.750300000000001 0.0240303111429 -2.957812492014 0.9997071259976 -80.49835673094 0.9997071259976 -80.49835673094 0.0240316930817 21.975363195854
8.750400000000001 0.0240260099096 -2.961609854791 0.9997072258974 -80.49953697909 0.9997072258974 -80.49953697909 0.0240273936193 21.976817707418
8.750500000000001 0.0240216916100 -2.965418596621 0.9997073261691 -80.50071823371 0.9997073261691 -80.50071823371 0.0240230771013 21.978281692863
8.750600000000000 0.0240173561634 -2.969238779091 0.9997074268148 -80.50190049959 0.9997074268148 -80.50190049959 0.0240187434469 21.979755203465
8.750700000000000 0.0240130034655 -2.973070477781 0.9997075278367 -80.50308378292 0.9997075278367 -80.50308378292 0.0240143925518 21.981238302734
8.750800000000000 0.0240086334080 -2.976913771506 0.9997076292374 -80.50426809009 0.9997076292374 -80.50426809009 0.0240100243076 21.982731055716
8.750900000000000 0.0240042458975 -2.980768726989 0.9997077310178 -80.50545342663 0.9997077310178 -80.50545342663 0.0240056386213 21.984233523069
8.751000000000001 0.0239998408176 -2.984635427581 0.9997078331806 -80.50663979941 0.9997078331806 -80.50663979941 0.0240012353767 21.985745774581
8.751100000000001 0.0239954180898 -2.988513934554 0.9997079357277 -80.50782721309 0.9997079357277 -80.50782721309 0.0239968144950 21.987267860987
8.751200000000001 0.0239909775898 -2.992404334485 0.9997080386610 -80.50901567502 0.9997080386610 -80.50901567502 0.0239923758525 21.988799858063
8.751300000000001 0.0239865192135 -2.996306706694 0.9997081419840 -80.51020519137 0.9997081419840 -80.51020519137 0.0239879193444 21.990341827619
8.751400000000000 0.0239820428742 -3.000221113697 0.9997082456971 -80.51139576726 0.9997082456971 -80.51139576726 0.0239834448847 21.991893828242
8.751500000000000 0.0239775484425 -3.004147647734 0.9997083498032 -80.51258741033 0.9997083498032 -80.51258741033 0.0239789523441 21.993455937058
8.751600000000000 0.0239730358191 -3.008086381247 0.9997084543038 -80.51378012647 0.9997084543038 -80.51378012647 0.0239744416235 21.995028217874
8.751700000000001 0.0239685048954 -3.012037397665 0.9997085592027 -80.51497392213 0.9997085592027 -80.51497392213 0.0239699126135 21.996610734564
8.751800000000001 0.0239639555711 -3.016000767493 0.9997086645003 -80.51616880321 0.9997086645003 -80.51616880321 0.0239653652149 21.998203554007
8.751900000000001 0.0239593877165 -3.019976584500 0.9997087701999 -80.51736477738 0.9997087701999 -80.51736477738 0.0239607992979 21.999806753529
8.752000000000001 0.0239548012353 -3.023964921719 0.9997088763035 -80.51856185037 0.9997088763035 -80.51856185037 0.0239562147659 22.001420394480
8.752100000000000 0.0239501960223 -3.027965856063 0.9997089828127 -80.51976002839 0.9997089828128 -80.51976002839 0.0239516115141 22.003044544210
8.752200000000000 0.0239455719517 -3.031979479232 0.9997090897307 -80.52095931888 0.9997090897307 -80.52095931888 0.0239469894167 22.004679278715
8.752300000000000 0.0239409289157 -3.036005870828 0.9997091970593 -80.52215972823 0.9997091970593 -80.52215972823 0.0239423483660 22.006324666362
8.752400000000000 0.0239362667887 -3.040045120606 0.9997093048008 -80.52336126385 0.9997093048008 -80.52336126385 0.0239376882367 22.007980785429
8.752500000000001 0.0239315854765 -3.044097302997 0.9997094129578 -80.52456393135 0.9997094129578 -80.52456393135 0.0239330089342 22.009647695353
8.752600000000001 0.0239268848458 -3.048162510662 0.9997095215317 -80.52576773859 0.9997095215317 -80.52576773859 0.0239283103261 22.011325480494
8.752700000000001 0.0239221647831 -3.052240831723 0.9997096305265 -80.52697269231 0.9997096305265 -80.52697269231 0.0239235922981 22.013014208942
8.752800000000001 0.0239174251716 -3.056332349291 0.9997097399432 -80.52817879940 0.9997097399432 -80.52817879940 0.0239188547341 22.014713957010
8.752900000000000 0.0239126658917 -3.060437153096 0.9997098497849 -80.52938606695 0.9997098497849 -80.52938606695 0.0239140975145 22.016424798445
8.753000000000000 0.0239078868246 -3.064555329000 0.9997099600530 -80.53059450198 0.9997099600530 -80.53059450198 0.0239093205207 22.018146809953
8.753100000000000 0.0239030878482 -3.068686969535 0.9997100707509 -80.53180411175 0.9997100707509 -80.53180411175 0.0239045236304 22.019880066286
8.753200000000001 0.0238982688498 -3.072832158501 0.9997101818807 -80.53301490290 0.9997101818807 -80.53301490290 0.0238997067313 22.021624640017
8.753300000000001 0.0238934296845 -3.076991001391 0.9997102934456 -80.53422688402 0.9997102934456 -80.53422688402 0.0238948696781 22.023380619130
8.753400000000001 0.0238885702382 -3.081163581077 0.9997104054468 -80.53544006186 0.9997104054468 -80.53544006186 0.0238900123576 22.025148079490
8.753500000000001 0.0238836903941 -3.085349987188 0.9997105178873 -80.53665444333 0.9997105178873 -80.53665444333 0.0238851346527 22.026927094077
8.753600000000000 0.0238787900200 -3.089550317807 0.9997106307701 -80.53787003626 0.9997106307701 -80.53787003626 0.0238802364311 22.028717745144
8.753700000000000 0.0238738689830 -3.093764669198 0.9997107440972 -80.53908684852 0.9997107440972 -80.53908684852 0.0238753175604 22.030520117565
8.753800000000000 0.0238689271660 -3.097993129886 0.9997108578709 -80.54030488704 0.9997108578709 -80.54030488704 0.0238703779235 22.032334286973
8.753900000000000 0.0238639644310 -3.102235803670 0.9997109720949 -80.54152416000 0.9997109720949 -80.54152416000 0.0238654173822 22.034160337720
8.754000000000001 0.0238589806549 -3.106492779430 0.9997110867701 -80.54274467467 0.9997110867701 -80.54274467467 0.0238604358142 22.035998352111
8.754100000000001 0.0238539757023 -3.110764160746 0.9997112019006 -80.54396643908 0.9997112019006 -80.54396643908 0.0238554330835 22.037848412954
8.754200000000001 0.0238489494418 -3.115050043369 0.9997113174880 -80.54518946100 0.9997113174880 -80.54518946100 0.0238504090594 22.039710605947
8.754300000000001 0.0238439017143 -3.119350543560 0.9997114335359 -80.54641374985 0.9997114335359 -80.54641374985 0.0238453635827 22.041585028424
8.754400000000000 0.0238388324349 -3.123665731445 0.9997115500459 -80.54763931067 0.9997115500459 -80.54763931067 0.0238402965685 22.043471740709
8.754500000000000 0.0238337414251 -3.127995735698 0.9997116670220 -80.54886615401 0.9997116670220 -80.54886615401 0.0238352078385 22.045370850381
8.754600000000000 0.0238286285652 -3.132340646091 0.9997117844657 -80.55009428698 0.9997117844657 -80.55009428698 0.0238300972731 22.047282438162
8.754700000000000 0.0238234937251 -3.136700562160 0.9997119023801 -80.55132371728 0.9997119023801 -80.55132371728 0.0238249647425 22.049206587099
8.754800000000001 0.0238183367448 -3.141075601559 0.9997120207684 -80.55255445437 0.9997120207684 -80.55255445437 0.0238198100867 22.051143396438
8.754900000000001 0.0238131574998 -3.145465859078 0.9997121396330 -80.55378650563 0.9997121396330 -80.55378650563 0.0238146331812 22.053092948744
8.755000000000001 0.0238079558401 -3.149871445563 0.9997122589764 -80.55501987994 0.9997122589764 -80.55501987994 0.0238094338765 22.055055339587
8.755100000000001 0.0238027316320 -3.154292463184 0.9997123788016 -80.55625458523 0.9997123788016 -80.55625458523 0.0238042120388 22.057030655619
8.755200000000000 0.0237974847185 -3.158729027998 0.9997124991116 -80.55749063079 0.9997124991116 -80.55749063079 0.0237989675113 22.059018996110
8.755300000000000 0.0237922149602 -3.163181248142 0.9997126199100 -80.55872802488 0.9997126199100 -80.55872802488 0.0237937001543 22.061020449444
8.755400000000000 0.0237869222050 -3.167649234146 0.9997127411987 -80.55996677650 0.9997127411987 -80.55996677650 0.0237884098165 22.063035115571
8.755500000000001 0.0237816063186 -3.172133090008 0.9997128629805 -80.56120689361 0.9997128629805 -80.56120689361 0.0237830963634 22.065063082171
8.755600000000001 0.0237762671404 -3.176632935622 0.9997129852588 -80.56244838573 0.9997129852588 -80.56244838573 0.0237777596346 22.067104450910
8.755700000000001 0.0237709045217 -3.181148881338 0.9997131080357 -80.56369126164 0.9997131080357 -80.56369126164 0.0237723994820 22.069159319957
8.755800000000001 0.0237655183100 -3.185681046545 0.9997132313158 -80.56493553041 0.9997132313158 -80.56493553041 0.0237670157523 22.071227784040
8.755900000000000 0.0237601083508 -3.190229545105 0.9997133551012 -80.56618120117 0.9997133551012 -80.56618120117 0.0237616082917 22.073309945509
8.756000000000000 0.0237546744963 -3.194794489516 0.9997134793945 -80.56742828269 0.9997134793945 -80.56742828269 0.0237561769526 22.075405901142
8.756100000000000 0.0237492165885 -3.199376000221 0.9997136041993 -80.56867678431 0.9997136041993 -80.56867678431 0.0237507215770 22.077515752049
8.756200000000000 0.0237437344618 -3.203974200349 0.9997137295184 -80.56992671586 0.9997137295184 -80.56992671586 0.0237452419996 22.079639605888
8.756300000000001 0.0237382279637 -3.208589207322 0.9997138553551 -80.57117808635 0.9997138553551 -80.57117808635 0.0237397380680 22.081777561620
8.756400000000001 0.0237326969408 -3.213221138047 0.9997139817121 -80.57243090490 0.9997139817121 -80.57243090490 0.0237342096289 22.083929720551
8.756500000000001 0.0237271412128 -3.217870128085 0.9997141085935 -80.57368518217 0.9997141085935 -80.57368518217 0.0237286565021 22.086096196276
8.756600000000001 0.0237215606406 -3.222536284307 0.9997142360011 -80.57494092641 0.9997142360011 -80.57494092641 0.0237230785489 22.088277084842
8.756700000000000 0.0237159550431 -3.227219745547 0.9997143639397 -80.57619814835 0.9997143639397 -80.57619814835 0.0237174755880 22.090472499092
8.756800000000000 0.0237103242566 -3.231920633237 0.9997144924112 -80.57745685768 0.9997144924112 -80.57745685768 0.0237118474562 22.092682549558
8.756900000000000 0.0237046681219 -3.236639072107 0.9997146214193 -80.57871706385 0.9997146214193 -80.57871706385 0.0237061939943 22.094907339435
8.757000000000000 0.0236989864623 -3.241375195793 0.9997147509677 -80.57997877732 0.9997147509677 -80.57997877732 0.0237005150257 22.097146983454
8.757100000000001 0.0236932791072 -3.246129132826 0.9997148810587 -80.58124200820 0.9997148810587 -80.58124200820 0.0236948103803 22.099401594958
8.757200000000001 0.0236875458906 -3.250901013348 0.9997150116967 -80.58250676633 0.9997150116967 -80.58250676633 0.0236890798919 22.101671281472
8.757300000000001 0.0236817866405 -3.255690966963 0.9997151428841 -80.58377306191 0.9997151428841 -80.58377306191 0.0236833233889 22.103956158215
8.757400000000001 0.0236760011783 -3.260499132325 0.9997152746252 -80.58504090551 0.9997152746252 -80.58504090551 0.0236775406926 22.106256340037
8.757500000000000 0.0236701893305 -3.265325641941 0.9997154069230 -80.58631030743 0.9997154069230 -80.58631030743 0.0236717316298 22.108571942295
8.757600000000000 0.0236643509077 -3.270170637428 0.9997155397805 -80.58758127887 0.9997155397805 -80.58758127887 0.0236658960117 22.110903090089
8.757700000000000 0.0236584857434 -3.275034250443 0.9997156732014 -80.58885382971 0.9997156732014 -80.58885382971 0.0236600336716 22.113249893625
8.757800000000001 0.0236525936545 -3.279916621366 0.9997158071893 -80.59012797082 0.9997158071893 -80.59012797082 0.0236541444266 22.115612473712
8.757900000000001 0.0236466744488 -3.284817898954 0.9997159417489 -80.59140371357 0.9997159417489 -80.59140371357 0.0236482280845 22.117990954008
8.758000000000001 0.0236407279509 -3.289738216559 0.9997160768820 -80.59268106838 0.9997160768820 -80.59268106838 0.0236422844703 22.120385455028
8.758100000000001 0.0236347539724 -3.294677718658 0.9997162125923 -80.59396004639 0.9997162125923 -80.59396004639 0.0236363133961 22.122796101514
8.758200000000000 0.0236287523210 -3.299636555522 0.9997163488845 -80.59524065901 0.9997163488845 -80.59524065901 0.0236303146693 22.125223018316
8.758300000000000 0.0236227228215 -3.304614863170 0.9997164857612 -80.59652291664 0.9997164857612 -80.59652291664 0.0236242881151 22.127666325328
8.758400000000000 0.0236166652666 -3.309612801738 0.9997166232273 -80.59780683156 0.9997166232273 -80.59780683156 0.0236182335261 22.130126156128
8.758500000000000 0.0236105794712 -3.314630512151 0.9997167612850 -80.59909241474 0.9997167612850 -80.59909241474 0.0236121507181 22.132602638320
8.758600000000001 0.0236044652311 -3.319668153834 0.9997168999392 -80.60037967829 0.9997168999392 -80.60037967829 0.0236060394865 22.135095904356
8.758700000000001 0.0235983223638 -3.324725868740 0.9997170391927 -80.60166863302 0.9997170391927 -80.60166863302 0.0235998996493 22.137606079826
8.758800000000001 0.0235921506580 -3.329803821395 0.9997171790505 -80.60295929149 0.9997171790505 -80.60295929149 0.0235937309951 22.140133301873
8.758900000000001 0.0235859499249 -3.334902159056 0.9997173195157 -80.60425166487 0.9997173195157 -80.60425166487 0.0235875333354 22.142677699675
8.759000000000000 0.0235797199478 -3.340021045592 0.9997174605915 -80.60554576599 0.9997174605915 -80.60554576599 0.0235813064543 22.145239418372
8.759100000000000 0.0235734605344 -3.345160635797 0.9997176022827 -80.60684160630 0.9997176022827 -80.60684160630 0.0235750501590 22.147818586093
8.759200000000000 0.0235671714810 -3.350321088428 0.9997177445932 -80.60813919785 0.9997177445932 -80.60813919785 0.0235687642462 22.150415340003
8.759300000000001 0.0235608525670 -3.355502573248 0.9997178875269 -80.60943855373 0.9997178875269 -80.60943855373 0.0235624484956 22.153029827131
8.759400000000001 0.0235545035880 -3.360705251152 0.9997180310879 -80.61073968606 0.9997180310879 -80.61073968606 0.0235561027029 22.155662185470
8.759500000000001 0.0235481243415 -3.365929281267 0.9997181752798 -80.61204260686 0.9997181752798 -80.61204260686 0.0235497266659 22.158312553618
8.759600000000001 0.0235417145976 -3.371174840583 0.9997183201067 -80.61334732975 0.9997183201067 -80.61334732975 0.0235433201551 22.160981084676
8.759700000000000 0.0235352741569 -3.376442087282 0.9997184655723 -80.61465386655 0.9997184655723 -80.61465386655 0.0235368829715 22.163667916369
8.759800000000000 0.0235288027881 -3.381731204533 0.9997186116823 -80.61596223101 0.9997186116823 -80.61596223101 0.0235304148832 22.166373199817
8.759900000000000 0.0235223002828 -3.387042354766 0.9997187584395 -80.61727243547 0.9997187584395 -80.61727243547 0.0235239156826 22.169097080613
8.760000000000000 0.0235157664095 -3.392375718175 0.9997189058482 -80.61858449367 0.9997189058482 -80.61858449367 0.0235173851386 22.171839714685
8.760100000000001 0.0235092009433 -3.397731471729 0.9997190539128 -80.61989841894 0.9997190539128 -80.61989841894 0.0235108230264 22.174601254412
8.760200000000001 0.0235026036604 -3.403109794760 0.9997192026384 -80.62121422458 0.9997192026384 -80.62121422458 0.0235042291221 22.177381850173
8.760300000000001 0.0234959743413 -3.408510858336 0.9997193520278 -80.62253192358 0.9997193520278 -80.62253192358 0.0234976032070 22.180181655634
8.760400000000001 0.0234893127400 -3.413934854483 0.9997195020859 -80.62385153055 0.9997195020859 -80.62385153055 0.0234909450352 22.183000836192
8.760500000000000 0.0234826186337 -3.419381964568 0.9997196528181 -80.62517305873 0.9997196528181 -80.62517305873 0.0234842543837 22.185839542087
8.760600000000000 0.0234758917875 -3.424852369520 0.9997198042271 -80.62649652201 0.9997198042271 -80.62649652201 0.0234775310187 22.188697938159
8.760700000000000 0.0234691319546 -3.430346266481 0.9997199563187 -80.62782193508 0.9997199563187 -80.62782193508 0.0234707746929 22.191576189263
8.760800000000000 0.0234623388987 -3.435863842536 0.9997201090969 -80.62914931194 0.9997201090969 -80.62914931194 0.0234639851706 22.194474458595
8.760900000000001 0.0234555123851 -3.441405286012 0.9997202625667 -80.63047866652 0.9997202625667 -80.63047866652 0.0234571622173 22.197392907390
8.761000000000001 0.0234486521703 -3.446970788780 0.9997204167317 -80.63181001327 0.9997204167317 -80.63181001327 0.0234503055897 22.200331704922
8.761100000000001 0.0234417579972 -3.452560555518 0.9997205715976 -80.63314336745 0.9997205715976 -80.63314336745 0.0234434150311 22.203291024707
8.761200000000001 0.0234348296157 -3.458174782271 0.9997207271679 -80.63447874389 0.9997207271679 -80.63447874389 0.0234364902920 22.206271041517
8.761300000000000 0.0234278667951 -3.463813659878 0.9997208834481 -80.63581615630 0.9997208834481 -80.63581615630 0.0234295311413 22.209271914812
8.761400000000000 0.0234208692511 -3.469477408219 0.9997210404429 -80.63715562155 0.9997210404429 -80.63715562155 0.0234225372955 22.212293838063
8.761500000000000 0.0234138367508 -3.475166220816 0.9997211981579 -80.63849715347 0.9997211981579 -80.63849715347 0.0234155085213 22.215336973086
8.761600000000001 0.0234067690085 -3.480880316225 0.9997213565963 -80.63984076898 0.9997213565963 -80.63984076898 0.0234084445344 22.218401518409
8.761700000000001 0.0233996657962 -3.486619884212 0.9997215157628 -80.64118648165 0.9997215157628 -80.64118648165 0.0234013451067 22.221487636324
8.761800000000001 0.0233925268271 -3.492385152661 0.9997216756635 -80.64253430851 0.9997216756635 -80.64253430851 0.0233942099513 22.224595521104
8.761900000000001 0.0233853518487 -3.498176327576 0.9997218363034 -80.64388426453 0.9997218363034 -80.64388426453 0.0233870388161 22.227725349686
8.762000000000000 0.0233781405847 -3.503993630087 0.9997219976877 -80.64523636614 0.9997219976877 -80.64523636614 0.0233798314249 22.230877313419
8.762100000000000 0.0233708927584 -3.509837277690 0.9997221598198 -80.64659062973 0.9997221598198 -80.64659062973 0.0233725875022 22.234051608458
8.762200000000000 0.0233636080855 -3.515707502973 0.9997223227070 -80.64794707220 0.9997223227070 -80.64794707220 0.0233653067631 22.237248427493
8.762300000000000 0.0233562863029 -3.521604516656 0.9997224863525 -80.64930570916 0.9997224863525 -80.64930570916 0.0233579889456 22.240467960416
8.762400000000001 0.0233489271327 -3.527528544954 0.9997226507620 -80.65066655713 0.9997226507620 -80.65066655713 0.0233506337718 22.243710401120
8.762500000000001 0.0233415302866 -3.533479821972 0.9997228159415 -80.65202963322 0.9997228159415 -80.65202963322 0.0233432409534 22.246975949568
8.762600000000001 0.0233340954689 -3.539458583492 0.9997229818958 -80.65339495499 0.9997229818958 -80.65339495499 0.0233358101953 22.250264813743
8.762700000000001 0.0233266224022 -3.545465057896 0.9997231486304 -80.65476253892 0.9997231486304 -80.65476253892 0.0233283412204 22.253577189280
8.762800000000000 0.0233191107870 -3.551499485455 0.9997233161503 -80.65613240278 0.9997233161503 -80.65613240278 0.0233208337296 22.256913287458
8.762900000000000 0.0233115603372 -3.557562099044 0.9997234844604 -80.65750456357 0.9997234844604 -80.65750456357 0.0233132874375 22.260273312592
8.763000000000000 0.0233039707500 -3.563653147435 0.9997236535675 -80.65887903929 0.9997236535675 -80.65887903929 0.0233057020410 22.263657474965
8.763100000000000 0.0232963417191 -3.569772878728 0.9997238234768 -80.66025584812 0.9997238234768 -80.66025584812 0.0232980772343 22.267065991084
8.763200000000001 0.0232886729382 -3.575921539663 0.9997239941931 -80.66163500824 0.9997239941931 -80.66163500824 0.0232904127120 22.270499080076
8.763300000000001 0.0232809641127 -3.582099375191 0.9997241657226 -80.66301653718 0.9997241657226 -80.66301653718 0.0232827081794 22.273956951208
8.763400000000001 0.0232732149256 -3.588306641889 0.9997243380703 -80.66440045374 0.9997243380703 -80.66440045374 0.0232749633201 22.277439830303
8.763500000000001 0.0232654250587 -3.594543601196 0.9997245112429 -80.66578677685 0.9997245112429 -80.66578677685 0.0232671778161 22.280947941412
8.763600000000000 0.0232575941913 -3.600810514283 0.9997246852457 -80.66717552555 0.9997246852457 -80.66717552555 0.0232593513471 22.284481513773
8.763700000000000 0.0232497220129 -3.607107637073 0.9997248600842 -80.66856671828 0.9997248600842 -80.66856671828 0.0232514836033 22.288040771320
8.763800000000000 0.0232418082021 -3.613435237815 0.9997250357655 -80.66996037417 0.9997250357655 -80.66996037417 0.0232435742630 22.291625941031
8.763900000000001 0.0232338524144 -3.619793594157 0.9997252122950 -80.67135651366 0.9997252122950 -80.67135651366 0.0232356229825 22.295237269210
8.764000000000001 0.0232258543400 -3.626182963513 0.9997253896775 -80.67275515517 0.9997253896775 -80.67275515517 0.0232276294527 22.298874983136
8.764100000000001 0.0232178136347 -3.632603629095 0.9997255679197 -80.67415631915 0.9997255679197 -80.67415631915 0.0232195933298 22.302539327308
8.764200000000001 0.0232097299514 -3.639055876992 0.9997257470284 -80.67556002622 0.9997257470284 -80.67556002622 0.0232115142667 22.306230549115
8.764300000000000 0.0232016029593 -3.645539981755 0.9997259270091 -80.67696629605 0.9997259270091 -80.67696629605 0.0232033919334 22.309948889643
8.764400000000000 0.0231934323149 -3.652056228324 0.9997261078682 -80.67837514905 0.9997261078682 -80.67837514905 0.0231952259867 22.313694596897
8.764500000000000 0.0231852176617 -3.658604912235 0.9997262896124 -80.67978660643 0.9997262896124 -80.67978660643 0.0231870160703 22.317467926375
8.764600000000000 0.0231769586536 -3.665186322181 0.9997264722481 -80.68120068874 0.9997264722481 -80.68120068874 0.0231787618385 22.321269129498
8.764700000000001 0.0231686549435 -3.671800745978 0.9997266557805 -80.68261741663 0.9997266557805 -80.68261741663 0.0231704629452 22.325098461927
8.764800000000001 0.0231603061520 -3.678448496651 0.9997268402168 -80.68403681263 0.9997268402168 -80.68403681263 0.0231621190112 22.328956195332
8.764900000000001 0.0231519119227 -3.685129874151 0.9997270255639 -80.68545889795 0.9997270255639 -80.68545889795 0.0231537296805 22.332842589090
8.765000000000001 0.0231434718856 -3.691845185825 0.9997272118278 -80.68688369458 0.9997272118278 -80.68688369458 0.0231452945835 22.336757913846
8.765100000000000 0.0231349856883 -3.698594730290 0.9997273990151 -80.68831122347 0.9997273990151 -80.68831122347 0.0231368133686 22.340702429891
8.765200000000000 0.0231264529334 -3.705378837480 0.9997275871332 -80.68974150826 0.9997275871332 -80.68974150826 0.0231282856383 22.344676422938
8.765300000000000 0.0231178732418 -3.712197824079 0.9997277761885 -80.69117457148 0.9997277761885 -80.69117457148 0.0231197110146 22.348680172058
8.765400000000001 0.0231092462233 -3.719052013206 0.9997279661866 -80.69261043632 0.9997279661866 -80.69261043632 0.0231110891081 22.352713965467
8.765500000000001 0.0231005715255 -3.725941719284 0.9997281571381 -80.69404912380 0.9997281571381 -80.69404912380 0.0231024195651 22.356778058838
8.765600000000001 0.0230918487123 -3.732867287456 0.9997283490453 -80.69549065978 0.9997283490453 -80.69549065978 0.0230937019523 22.360872777544
8.765700000000001 0.0230830774113 -3.739829043840 0.9997285419179 -80.69693506644 0.9997285419179 -80.69693506644 0.0230849358966 22.364998394037
8.765800000000000 0.0230742572122 -3.746827335335 0.9997287357638 -80.69838236821 0.9997287357638 -80.69838236821 0.0230761209879 22.369155208075
8.765900000000000 0.0230653877157 -3.753862494356 0.9997289305876 -80.69983258880 0.9997289305876 -80.69983258880 0.0230672568286 22.373343522157
8.766000000000000 0.0230564685090 -3.760934874312 0.9997291263982 -80.70128575279 0.9997291263982 -80.70128575279 0.0230583430056 22.377563638050
8.766100000000000 0.0230474991714 -3.768044830538 0.9997293232029 -80.70274188520 0.9997293232029 -80.70274188520 0.0230493790988 22.381815867433
8.766200000000001 0.0230384792986 -3.775192706437 0.9997295210076 -80.70420101008 0.9997295210076 -80.70420101008 0.0230403647051 22.386100516642
8.766300000000001 0.0230294084535 -3.782378874225 0.9997297198212 -80.70566315343 0.9997297198212 -80.70566315343 0.0230312993875 22.390417906237
8.766400000000001 0.0230202861963 -3.789603708796 0.9997299196522 -80.70712834145 0.9997299196522 -80.70712834145 0.0230221827062 22.394768360798
8.766500000000001 0.0230111121290 -3.796867551897 0.9997301205058 -80.70859659780 0.9997301205058 -80.70859659780 0.0230130142648 22.399152189000
8.766600000000000 0.0230018857844 -3.804170799303 0.9997303223909 -80.71006795028 0.9997303223909 -80.71006795028 0.0230037935963 22.403569733648
8.766700000000000 0.0229926067272 -3.811513826436 0.9997305253156 -80.71154242479 0.9997305253156 -80.71154242479 0.0229945202659 22.408021321826
8.766800000000000 0.0229832745020 -3.818897022639 0.9997307292881 -80.71302004846 0.9997307292881 -80.71302004846 0.0229851938185 22.412507294709
8.766900000000000 0.0229738886829 -3.826320755533 0.9997309343141 -80.71450084662 0.9997309343141 -80.71450084662 0.0229758138296 22.417027981738
8.767000000000001 0.0229644487632 -3.833785451482 0.9997311404028 -80.71598484941 0.9997311404028 -80.71598484941 0.0229663797933 22.421583755709
8.767100000000001 0.0229549543065 -3.841291496567 0.9997313475635 -80.71747208283 0.9997313475635 -80.71747208283 0.0229568912728 22.426174948060
8.767200000000001 0.0229454048609 -3.848839282576 0.9997315558033 -80.71896257381 0.9997315558033 -80.71896257381 0.0229473478171 22.430801906172
8.767300000000001 0.0229357999278 -3.856429232700 0.9997317651299 -80.72045635198 0.9997317651299 -80.72045635198 0.0229377489288 22.435465006121
8.767400000000000 0.0229261390282 -3.864061766098 0.9997319755532 -80.72195344590 0.9997319755532 -80.72195344590 0.0229280941291 22.440164608548
8.767500000000000 0.0229164216864 -3.871737294286 0.9997321870802 -80.72345388388 0.9997321870802 -80.72345388388 0.0229183829431 22.444901080734
8.767600000000000 0.0229066473988 -3.879456251129 0.9997323997195 -80.72495769588 0.9997323997195 -80.72495769588 0.0229086148684 22.449674805186
8.767700000000001 0.0228968156849 -3.887219059336 0.9997326134796 -80.72646491055 0.9997326134796 -80.72646491055 0.0228987894246 22.454486151987
8.767800000000001 0.0228869260148 -3.895026174407 0.9997328283696 -80.72797555941 0.9997328283696 -80.72797555941 0.0228889060830 22.459335521766
8.767900000000001 0.0228769779010 -3.902878027900 0.9997330443985 -80.72948967154 0.9997330443985 -80.72948967154 0.0228789643562 22.464223292130
8.768000000000001 0.0228669708252 -3.910775072653 0.9997332615754 -80.73100727780 0.9997332615754 -80.73100727780 0.0228689637268 22.469149860403
8.768100000000000 0.0228569042670 -3.918717762623 0.9997334799084 -80.73252840916 0.9997334799084 -80.73252840916 0.0228589036753 22.474115629457
8.768200000000000 0.0228467776897 -3.926706564011 0.9997336994060 -80.73405309760 0.9997336994060 -80.73405309760 0.0228487836664 22.479121013879
8.768300000000000 0.0228365905797 -3.934741936855 0.9997339200785 -80.73558137374 0.9997339200784 -80.73558137374 0.0228386031862 22.484166411329
8.768400000000000 0.0228263423823 -3.942824362390 0.9997341419340 -80.73711327060 0.9997341419340 -80.73711327060 0.0228283616816 22.489252251919
8.768500000000001 0.0228160325530 -3.950954322369 0.9997343649824 -80.73864882063 0.9997343649824 -80.73864882063 0.0228180586086 22.494378957926
8.768600000000001 0.0228056605379 -3.959132308828 0.9997345892343 -80.74018805685 0.9997345892343 -80.74018805685 0.0228076934135 22.499546957480
8.768700000000001 0.0227952258041 -3.967358793867 0.9997348146967 -80.74173101101 0.9997348146967 -80.74173101101 0.0227972655653 22.504756676265
8.768800000000001 0.0227847277246 -3.975634321844 0.9997350413812 -80.74327772045 0.9997350413813 -80.74327772045 0.0227867744373 22.510008589759
8.768900000000000 0.0227741657725 -3.983959371096 0.9997352692969 -80.74482821659 0.9997352692969 -80.74482821659 0.0227762195034 22.515303120205
8.769000000000000 0.0227635393724 -3.992334453277 0.9997354984530 -80.74638253374 0.9997354984529 -80.74638253374 0.0227656001893 22.520640720815
8.769100000000000 0.0227528479322 -4.000760094122 0.9997357288592 -80.74794070718 0.9997357288592 -80.74794070718 0.0227549159038 22.526021857061
8.769200000000000 0.0227420908462 -4.009236834995 0.9997359605272 -80.74950277302 0.9997359605272 -80.74950277302 0.0227441660416 22.531447000629
8.769300000000001 0.0227312674939 -4.017765222692 0.9997361934659 -80.75106876824 0.9997361934659 -80.75106876824 0.0227333499836 22.536916641071
8.769400000000001 0.0227203773119 -4.026345772857 0.9997364276851 -80.75263872644 0.9997364276851 -80.75263872644 0.0227224671674 22.542431233252
8.769500000000001 0.0227094196694 -4.034979048742 0.9997366631955 -80.75421268524 0.9997366631955 -80.75421268524 0.0227115169629 22.547991274220
8.769600000000001 0.0226983939169 -4.043665628974 0.9997369000082 -80.75579068336 0.9997369000082 -80.75579068336 0.0227004987216 22.553597274056
8.769700000000000 0.0226872994615 -4.052406054385 0.9997371381323 -80.75737275615 0.9997371381323 -80.75737275615 0.0226894118517 22.559249715523
8.769800000000000 0.0226761356455 -4.061200918284 0.9997373775803 -80.75895894287 0.9997373775803 -80.75895894287 0.0226782556959 22.564949116251
8.769900000000000 0.0226649018074 -4.070050809642 0.9997376183611 -80.76054928292 0.9997376183611 -80.76054928292 0.0226670295949 22.570696007425
8.770000000000001 0.0226535973207 -4.078956305942 0.9997378604862 -80.76214381370 0.9997378604862 -80.76214381370 0.0226557329224 22.576490895218
8.770100000000001 0.0226422214965 -4.087918030010 0.9997381039683 -80.76374257633 0.9997381039683 -80.76374257633 0.0226443649899 22.582334324755