! Sonnet Data File
! From: emgraph Version : 16.52
! From Project: 171117_Xmon_fullysym
! Data is De-embedded 
! Data File Written: 11/27/2017 00:27:56
!< HDATE 11/26/2017 21:47:59
!< MDATE 11/26/2017 21:47:59
!< PARAMS
!< Lj = 11.0
!< Gap = 1.0
!< Pwid = 2000.0
!< Airgap = 6.0
!< Width = 10.0
!< Lj1 = 10.74
!< END PARAMS
# GHZ S MA R 50.90000
8.76000000 0.022526 -3.855 0.999742 -80.68 0.999742 -80.68 0.022528 22.521
!< P1 F=8.76 Eeff=(6.44841381 -2.9796e-5) Z0=(50.9085048 1.17026e-4) R=0.0 C=0.0 
!< P2 F=8.76 Eeff=(6.44841381 -2.9796e-5) Z0=(50.9085048 1.17026e-4) R=0.0 C=0.0 
8.76005000 0.022523 -3.858 0.999742 -80.68 0.999742 -80.68 0.022524 22.522
8.76010000 0.022519 -3.860 0.999742 -80.68 0.999742 -80.68 0.022521 22.523
8.76015000 0.022516 -3.863 0.999742 -80.68 0.999742 -80.68 0.022517 22.525
8.76020000 0.022512 -3.866 0.999742 -80.68 0.999742 -80.68 0.022514 22.526
8.76025000 0.022509 -3.868 0.999742 -80.68 0.999742 -80.68 0.022510 22.527
8.76030000 0.022505 -3.871 0.999742 -80.68 0.999742 -80.68 0.022507 22.529
8.76035000 0.022502 -3.873 0.999742 -80.68 0.999742 -80.68 0.022503 22.530
8.76040000 0.022498 -3.876 0.999742 -80.68 0.999742 -80.68 0.022500 22.531
8.76045000 0.022495 -3.879 0.999742 -80.68 0.999742 -80.68 0.022496 22.532
8.76050000 0.022491 -3.881 0.999742 -80.68 0.999742 -80.68 0.022493 22.534
8.76055000 0.022488 -3.884 0.999742 -80.68 0.999742 -80.68 0.022489 22.535
8.76060000 0.022484 -3.887 0.999743 -80.68 0.999743 -80.68 0.022486 22.536
8.76065000 0.022480 -3.889 0.999743 -80.68 0.999743 -80.68 0.022482 22.538
8.76070000 0.022477 -3.892 0.999743 -80.69 0.999743 -80.69 0.022478 22.539
8.76075000 0.022473 -3.895 0.999743 -80.69 0.999743 -80.69 0.022475 22.540
8.76080000 0.022470 -3.897 0.999743 -80.69 0.999743 -80.69 0.022471 22.542
8.76085000 0.022466 -3.900 0.999743 -80.69 0.999743 -80.69 0.022468 22.543
8.76090000 0.022462 -3.903 0.999743 -80.69 0.999743 -80.69 0.022464 22.544
8.76095000 0.022459 -3.905 0.999743 -80.69 0.999743 -80.69 0.022460 22.546
8.76100000 0.022455 -3.908 0.999743 -80.69 0.999743 -80.69 0.022457 22.547
8.76105000 0.022452 -3.911 0.999743 -80.69 0.999743 -80.69 0.022453 22.548
8.76110000 0.022448 -3.913 0.999743 -80.69 0.999743 -80.69 0.022449 22.550
8.76115000 0.022444 -3.916 0.999743 -80.69 0.999743 -80.69 0.022446 22.551
8.76120000 0.022441 -3.919 0.999743 -80.69 0.999743 -80.69 0.022442 22.552
8.76125000 0.022437 -3.921 0.999744 -80.69 0.999744 -80.69 0.022438 22.554
8.76130000 0.022433 -3.924 0.999744 -80.69 0.999744 -80.69 0.022435 22.555
8.76135000 0.022429 -3.927 0.999744 -80.69 0.999744 -80.69 0.022431 22.556
8.76140000 0.022426 -3.929 0.999744 -80.69 0.999744 -80.69 0.022427 22.558
8.76145000 0.022422 -3.932 0.999744 -80.70 0.999744 -80.70 0.022424 22.559
8.76150000 0.022418 -3.935 0.999744 -80.70 0.999744 -80.70 0.022420 22.561
8.76155000 0.022414 -3.938 0.999744 -80.70 0.999744 -80.70 0.022416 22.562
8.76160000 0.022411 -3.940 0.999744 -80.70 0.999744 -80.70 0.022412 22.563
8.76165000 0.022407 -3.943 0.999744 -80.70 0.999744 -80.70 0.022409 22.565
8.76170000 0.022403 -3.946 0.999744 -80.70 0.999744 -80.70 0.022405 22.566
8.76175000 0.022399 -3.949 0.999744 -80.70 0.999744 -80.70 0.022401 22.568
8.76180000 0.022396 -3.951 0.999744 -80.70 0.999744 -80.70 0.022397 22.569
8.76185000 0.022392 -3.954 0.999745 -80.70 0.999745 -80.70 0.022393 22.570
8.76190000 0.022388 -3.957 0.999745 -80.70 0.999745 -80.70 0.022390 22.572
8.76195000 0.022384 -3.960 0.999745 -80.70 0.999745 -80.70 0.022386 22.573
8.76200000 0.022380 -3.962 0.999745 -80.70 0.999745 -80.70 0.022382 22.575
8.76205000 0.022376 -3.965 0.999745 -80.70 0.999745 -80.70 0.022378 22.576
8.76210000 0.022373 -3.968 0.999745 -80.70 0.999745 -80.70 0.022374 22.577
8.76215000 0.022369 -3.971 0.999745 -80.71 0.999745 -80.71 0.022370 22.579
8.76220000 0.022365 -3.974 0.999745 -80.71 0.999745 -80.71 0.022366 22.580
8.76225000 0.022361 -3.976 0.999745 -80.71 0.999745 -80.71 0.022363 22.582
8.76230000 0.022357 -3.979 0.999745 -80.71 0.999745 -80.71 0.022359 22.583
8.76235000 0.022353 -3.982 0.999745 -80.71 0.999745 -80.71 0.022355 22.585
8.76240000 0.022349 -3.985 0.999745 -80.71 0.999745 -80.71 0.022351 22.586
8.76245000 0.022345 -3.988 0.999746 -80.71 0.999746 -80.71 0.022347 22.587
8.76250000 0.022341 -3.990 0.999746 -80.71 0.999746 -80.71 0.022343 22.589
8.76255000 0.022337 -3.993 0.999746 -80.71 0.999746 -80.71 0.022339 22.590
8.76260000 0.022333 -3.996 0.999746 -80.71 0.999746 -80.71 0.022335 22.592
8.76265000 0.022329 -3.999 0.999746 -80.71 0.999746 -80.71 0.022331 22.593
8.76270000 0.022325 -4.002 0.999746 -80.71 0.999746 -80.71 0.022327 22.595
8.76275000 0.022321 -4.005 0.999746 -80.71 0.999746 -80.71 0.022323 22.596
8.76280000 0.022317 -4.007 0.999746 -80.71 0.999746 -80.71 0.022319 22.598
8.76285000 0.022313 -4.010 0.999746 -80.71 0.999746 -80.71 0.022315 22.599
8.76290000 0.022309 -4.013 0.999746 -80.72 0.999746 -80.72 0.022311 22.601
8.76295000 0.022305 -4.016 0.999746 -80.72 0.999746 -80.72 0.022307 22.602
8.76300000 0.022301 -4.019 0.999746 -80.72 0.999746 -80.72 0.022303 22.604
8.76305000 0.022297 -4.022 0.999747 -80.72 0.999747 -80.72 0.022299 22.605
8.76310000 0.022293 -4.025 0.999747 -80.72 0.999747 -80.72 0.022294 22.607
8.76315000 0.022289 -4.027 0.999747 -80.72 0.999747 -80.72 0.022290 22.608
8.76320000 0.022284 -4.030 0.999747 -80.72 0.999747 -80.72 0.022286 22.610
8.76325000 0.022280 -4.033 0.999747 -80.72 0.999747 -80.72 0.022282 22.611
8.76330000 0.022276 -4.036 0.999747 -80.72 0.999747 -80.72 0.022278 22.613
8.76335000 0.022272 -4.039 0.999747 -80.72 0.999747 -80.72 0.022274 22.614
8.76340000 0.022268 -4.042 0.999747 -80.72 0.999747 -80.72 0.022269 22.616
8.76345000 0.022264 -4.045 0.999747 -80.72 0.999747 -80.72 0.022265 22.617
8.76350000 0.022259 -4.048 0.999747 -80.72 0.999747 -80.72 0.022261 22.619
8.76355000 0.022255 -4.051 0.999747 -80.72 0.999747 -80.72 0.022257 22.620
8.76360000 0.022251 -4.054 0.999748 -80.73 0.999748 -80.73 0.022253 22.622
8.76365000 0.022247 -4.057 0.999748 -80.73 0.999748 -80.73 0.022248 22.624
8.76370000 0.022242 -4.060 0.999748 -80.73 0.999748 -80.73 0.022244 22.625
8.76375000 0.022238 -4.063 0.999748 -80.73 0.999748 -80.73 0.022240 22.627
8.76380000 0.022234 -4.066 0.999748 -80.73 0.999748 -80.73 0.022235 22.628
8.76385000 0.022229 -4.069 0.999748 -80.73 0.999748 -80.73 0.022231 22.630
8.76390000 0.022225 -4.072 0.999748 -80.73 0.999748 -80.73 0.022227 22.631
8.76395000 0.022221 -4.074 0.999748 -80.73 0.999748 -80.73 0.022222 22.633
8.76400000 0.022216 -4.077 0.999748 -80.73 0.999748 -80.73 0.022218 22.635
8.76405000 0.022212 -4.080 0.999748 -80.73 0.999748 -80.73 0.022214 22.636
8.76410000 0.022207 -4.083 0.999748 -80.73 0.999748 -80.73 0.022209 22.638
8.76415000 0.022203 -4.086 0.999749 -80.73 0.999749 -80.73 0.022205 22.639
8.76420000 0.022199 -4.089 0.999749 -80.73 0.999749 -80.73 0.022200 22.641
8.76425000 0.022194 -4.093 0.999749 -80.73 0.999749 -80.73 0.022196 22.643
8.76430000 0.022190 -4.096 0.999749 -80.74 0.999749 -80.74 0.022191 22.644
8.76435000 0.022185 -4.099 0.999749 -80.74 0.999749 -80.74 0.022187 22.646
8.76440000 0.022181 -4.102 0.999749 -80.74 0.999749 -80.74 0.022182 22.647
8.76445000 0.022176 -4.105 0.999749 -80.74 0.999749 -80.74 0.022178 22.649
8.76450000 0.022172 -4.108 0.999749 -80.74 0.999749 -80.74 0.022173 22.651
8.76455000 0.022167 -4.111 0.999749 -80.74 0.999749 -80.74 0.022169 22.652
8.76460000 0.022162 -4.114 0.999749 -80.74 0.999749 -80.74 0.022164 22.654
8.76465000 0.022158 -4.117 0.999749 -80.74 0.999749 -80.74 0.022160 22.656
8.76470000 0.022153 -4.120 0.999750 -80.74 0.999750 -80.74 0.022155 22.657
8.76475000 0.022149 -4.123 0.999750 -80.74 0.999750 -80.74 0.022150 22.659
8.76480000 0.022144 -4.126 0.999750 -80.74 0.999750 -80.74 0.022146 22.661
8.76485000 0.022139 -4.129 0.999750 -80.74 0.999750 -80.74 0.022141 22.662
8.76490000 0.022134 -4.132 0.999750 -80.74 0.999750 -80.74 0.022136 22.664
8.76495000 0.022130 -4.136 0.999750 -80.75 0.999750 -80.75 0.022131 22.666
8.76500000 0.022125 -4.139 0.999750 -80.75 0.999750 -80.75 0.022127 22.667
8.76505000 0.022120 -4.142 0.999750 -80.75 0.999750 -80.75 0.022122 22.669
8.76510000 0.022115 -4.145 0.999750 -80.75 0.999750 -80.75 0.022117 22.671
8.76515000 0.022111 -4.148 0.999750 -80.75 0.999750 -80.75 0.022112 22.672
8.76520000 0.022106 -4.151 0.999751 -80.75 0.999751 -80.75 0.022108 22.674
8.76525000 0.022101 -4.154 0.999751 -80.75 0.999751 -80.75 0.022103 22.676
8.76530000 0.022096 -4.158 0.999751 -80.75 0.999751 -80.75 0.022098 22.678
8.76535000 0.022091 -4.161 0.999751 -80.75 0.999751 -80.75 0.022093 22.679
8.76540000 0.022086 -4.164 0.999751 -80.75 0.999751 -80.75 0.022088 22.681
8.76545000 0.022081 -4.167 0.999751 -80.75 0.999751 -80.75 0.022083 22.683
8.76550000 0.022076 -4.170 0.999751 -80.75 0.999751 -80.75 0.022078 22.684
8.76555000 0.022071 -4.173 0.999751 -80.75 0.999751 -80.75 0.022073 22.686
8.76560000 0.022066 -4.177 0.999751 -80.75 0.999751 -80.75 0.022068 22.688
8.76565000 0.022061 -4.180 0.999751 -80.76 0.999751 -80.76 0.022063 22.690
8.76570000 0.022056 -4.183 0.999752 -80.76 0.999752 -80.76 0.022058 22.691
8.76575000 0.022051 -4.186 0.999752 -80.76 0.999752 -80.76 0.022053 22.693
8.76580000 0.022046 -4.190 0.999752 -80.76 0.999752 -80.76 0.022048 22.695
8.76585000 0.022041 -4.193 0.999752 -80.76 0.999752 -80.76 0.022042 22.697
8.76590000 0.022036 -4.196 0.999752 -80.76 0.999752 -80.76 0.022037 22.699
8.76595000 0.022030 -4.199 0.999752 -80.76 0.999752 -80.76 0.022032 22.700
8.76600000 0.022025 -4.203 0.999752 -80.76 0.999752 -80.76 0.022027 22.702
8.76605000 0.022020 -4.206 0.999752 -80.76 0.999752 -80.76 0.022022 22.704
8.76610000 0.022014 -4.209 0.999752 -80.76 0.999752 -80.76 0.022016 22.706
8.76615000 0.022009 -4.213 0.999752 -80.76 0.999752 -80.76 0.022011 22.708
8.76620000 0.022004 -4.216 0.999753 -80.76 0.999753 -80.76 0.022006 22.709
8.76625000 0.021998 -4.219 0.999753 -80.76 0.999753 -80.76 0.022000 22.711
8.76630000 0.021993 -4.223 0.999753 -80.77 0.999753 -80.77 0.021995 22.713
8.76635000 0.021987 -4.226 0.999753 -80.77 0.999753 -80.77 0.021989 22.715
8.76640000 0.021982 -4.229 0.999753 -80.77 0.999753 -80.77 0.021984 22.717
8.76645000 0.021976 -4.233 0.999753 -80.77 0.999753 -80.77 0.021978 22.719
8.76650000 0.021971 -4.236 0.999753 -80.77 0.999753 -80.77 0.021973 22.721
8.76655000 0.021965 -4.239 0.999753 -80.77 0.999753 -80.77 0.021967 22.722
8.76660000 0.021960 -4.243 0.999753 -80.77 0.999753 -80.77 0.021961 22.724
8.76665000 0.021954 -4.246 0.999754 -80.77 0.999754 -80.77 0.021956 22.726
8.76670000 0.021948 -4.250 0.999754 -80.77 0.999754 -80.77 0.021950 22.728
8.76675000 0.021943 -4.253 0.999754 -80.77 0.999754 -80.77 0.021944 22.730
8.76680000 0.021937 -4.256 0.999754 -80.77 0.999754 -80.77 0.021939 22.732
8.76685000 0.021931 -4.260 0.999754 -80.77 0.999754 -80.77 0.021933 22.734
8.76690000 0.021925 -4.263 0.999754 -80.78 0.999754 -80.78 0.021927 22.736
8.76695000 0.021919 -4.267 0.999754 -80.78 0.999754 -80.78 0.021921 22.738
8.76700000 0.021913 -4.270 0.999754 -80.78 0.999754 -80.78 0.021915 22.740
8.76705000 0.021907 -4.274 0.999754 -80.78 0.999754 -80.78 0.021909 22.742
8.76710000 0.021901 -4.277 0.999755 -80.78 0.999755 -80.78 0.021903 22.744
8.76715000 0.021895 -4.281 0.999755 -80.78 0.999755 -80.78 0.021897 22.746
8.76720000 0.021889 -4.284 0.999755 -80.78 0.999755 -80.78 0.021891 22.748
8.76725000 0.021883 -4.288 0.999755 -80.78 0.999755 -80.78 0.021885 22.750
8.76730000 0.021877 -4.291 0.999755 -80.78 0.999755 -80.78 0.021878 22.752
8.76735000 0.021870 -4.295 0.999755 -80.78 0.999755 -80.78 0.021872 22.754
8.76740000 0.021864 -4.299 0.999755 -80.78 0.999755 -80.78 0.021866 22.756
8.76745000 0.021858 -4.302 0.999755 -80.78 0.999755 -80.78 0.021860 22.758
8.76750000 0.021851 -4.306 0.999755 -80.79 0.999755 -80.79 0.021853 22.760
8.76755000 0.021845 -4.309 0.999756 -80.79 0.999756 -80.79 0.021847 22.762
8.76760000 0.021838 -4.313 0.999756 -80.79 0.999756 -80.79 0.021840 22.764
8.76765000 0.021832 -4.317 0.999756 -80.79 0.999756 -80.79 0.021834 22.766
8.76770000 0.021825 -4.320 0.999756 -80.79 0.999756 -80.79 0.021827 22.768
8.76775000 0.021818 -4.324 0.999756 -80.79 0.999756 -80.79 0.021820 22.770
8.76780000 0.021812 -4.328 0.999756 -80.79 0.999756 -80.79 0.021813 22.772
8.76785000 0.021805 -4.331 0.999756 -80.79 0.999756 -80.79 0.021807 22.774
8.76790000 0.021798 -4.335 0.999756 -80.79 0.999756 -80.79 0.021800 22.776
8.76795000 0.021791 -4.339 0.999757 -80.79 0.999757 -80.79 0.021793 22.778
8.76800000 0.021784 -4.343 0.999757 -80.79 0.999757 -80.79 0.021786 22.781
8.76805000 0.021777 -4.346 0.999757 -80.79 0.999757 -80.79 0.021779 22.783
8.76810000 0.021770 -4.350 0.999757 -80.80 0.999757 -80.80 0.021771 22.785
8.76815000 0.021762 -4.354 0.999757 -80.80 0.999757 -80.80 0.021764 22.787
8.76820000 0.021755 -4.358 0.999757 -80.80 0.999757 -80.80 0.021757 22.789
8.76825000 0.021748 -4.361 0.999757 -80.80 0.999757 -80.80 0.021750 22.791
8.76830000 0.021740 -4.365 0.999758 -80.80 0.999758 -80.80 0.021742 22.794
8.76835000 0.021733 -4.369 0.999758 -80.80 0.999758 -80.80 0.021734 22.796
8.76840000 0.021725 -4.373 0.999758 -80.80 0.999758 -80.80 0.021727 22.798
8.76845000 0.021717 -4.377 0.999758 -80.80 0.999758 -80.80 0.021719 22.800
8.76850000 0.021709 -4.381 0.999758 -80.80 0.999758 -80.80 0.021711 22.803
8.76855000 0.021701 -4.385 0.999758 -80.80 0.999758 -80.80 0.021703 22.805
8.76860000 0.021693 -4.389 0.999758 -80.80 0.999758 -80.80 0.021695 22.807
8.76865000 0.021685 -4.393 0.999758 -80.81 0.999758 -80.81 0.021687 22.809
8.76870000 0.021677 -4.397 0.999759 -80.81 0.999759 -80.81 0.021679 22.812
8.76875000 0.021669 -4.401 0.999759 -80.81 0.999759 -80.81 0.021671 22.814
8.76880000 0.021660 -4.405 0.999759 -80.81 0.999759 -80.81 0.021662 22.816
8.76885000 0.021652 -4.409 0.999759 -80.81 0.999759 -80.81 0.021654 22.819
8.76890000 0.021643 -4.413 0.999759 -80.81 0.999759 -80.81 0.021645 22.821
8.76895000 0.021634 -4.417 0.999759 -80.81 0.999759 -80.81 0.021636 22.824
8.76900000 0.021625 -4.421 0.999759 -80.81 0.999759 -80.81 0.021627 22.826
8.76905000 0.021616 -4.425 0.999760 -80.81 0.999760 -80.81 0.021618 22.829
8.76910000 0.021607 -4.429 0.999760 -80.81 0.999760 -80.81 0.021609 22.831
8.76915000 0.021598 -4.434 0.999760 -80.82 0.999760 -80.82 0.021600 22.834
8.76920000 0.021588 -4.438 0.999760 -80.82 0.999760 -80.82 0.021590 22.836
8.76925000 0.021579 -4.442 0.999760 -80.82 0.999760 -80.82 0.021581 22.839
8.76930000 0.021569 -4.446 0.999760 -80.82 0.999760 -80.82 0.021571 22.841
8.76935000 0.021559 -4.451 0.999761 -80.82 0.999761 -80.82 0.021561 22.844
8.76940000 0.021549 -4.455 0.999761 -80.82 0.999761 -80.82 0.021551 22.846
8.76945000 0.021539 -4.459 0.999761 -80.82 0.999761 -80.82 0.021541 22.849
8.76950000 0.021528 -4.464 0.999761 -80.82 0.999761 -80.82 0.021530 22.852
8.76955000 0.021517 -4.468 0.999761 -80.82 0.999761 -80.82 0.021519 22.854
8.76960000 0.021506 -4.473 0.999761 -80.82 0.999761 -80.82 0.021509 22.857
8.76965000 0.021495 -4.477 0.999761 -80.83 0.999761 -80.83 0.021497 22.860
8.76970000 0.021484 -4.482 0.999762 -80.83 0.999762 -80.83 0.021486 22.863
8.76975000 0.021473 -4.486 0.999762 -80.83 0.999762 -80.83 0.021475 22.865
8.76980000 0.021461 -4.491 0.999762 -80.83 0.999762 -80.83 0.021463 22.868
8.76985000 0.021449 -4.496 0.999762 -80.83 0.999762 -80.83 0.021451 22.871
8.76990000 0.021436 -4.500 0.999762 -80.83 0.999762 -80.83 0.021439 22.874
8.76995000 0.021424 -4.505 0.999762 -80.83 0.999762 -80.83 0.021426 22.877
8.77000000 0.021411 -4.510 0.999763 -80.83 0.999763 -80.83 0.021413 22.880
8.77005000 0.021398 -4.515 0.999763 -80.84 0.999763 -80.84 0.021400 22.883
8.77010000 0.021384 -4.520 0.999763 -80.84 0.999763 -80.84 0.021387 22.886
8.77015000 0.021371 -4.525 0.999763 -80.84 0.999763 -80.84 0.021373 22.889
8.77020000 0.021356 -4.530 0.999763 -80.84 0.999763 -80.84 0.021359 22.892
8.77025000 0.021342 -4.535 0.999763 -80.84 0.999763 -80.84 0.021344 22.896
8.77030000 0.021327 -4.540 0.999764 -80.84 0.999764 -80.84 0.021329 22.899
8.77035000 0.021312 -4.545 0.999764 -80.84 0.999764 -80.84 0.021314 22.902
8.77040000 0.021296 -4.550 0.999764 -80.84 0.999764 -80.84 0.021298 22.906
8.77045000 0.021280 -4.556 0.999764 -80.85 0.999764 -80.85 0.021282 22.909
8.77050000 0.021263 -4.561 0.999764 -80.85 0.999764 -80.85 0.021265 22.913
8.77055000 0.021246 -4.567 0.999764 -80.85 0.999764 -80.85 0.021248 22.917
8.77060000 0.021228 -4.572 0.999765 -80.85 0.999765 -80.85 0.021230 22.920
8.77065000 0.021209 -4.578 0.999765 -80.85 0.999765 -80.85 0.021212 22.924
8.77070000 0.021190 -4.584 0.999765 -80.85 0.999765 -80.85 0.021193 22.928
8.77075000 0.021171 -4.589 0.999765 -80.85 0.999765 -80.85 0.021173 22.932
8.77080000 0.021150 -4.595 0.999765 -80.86 0.999765 -80.86 0.021153 22.936
8.77085000 0.021129 -4.601 0.999765 -80.86 0.999765 -80.86 0.021131 22.941
8.77090000 0.021107 -4.607 0.999766 -80.86 0.999766 -80.86 0.021110 22.945
8.77095000 0.021084 -4.614 0.999766 -80.86 0.999766 -80.86 0.021087 22.950
8.77100000 0.021060 -4.620 0.999766 -80.86 0.999766 -80.86 0.021063 22.954
8.77105000 0.021035 -4.626 0.999766 -80.87 0.999766 -80.87 0.021038 22.959
8.77110000 0.021009 -4.633 0.999766 -80.87 0.999766 -80.87 0.021012 22.964
8.77115000 0.020982 -4.640 0.999766 -80.87 0.999766 -80.87 0.020985 22.970
8.77120000 0.020954 -4.647 0.999766 -80.87 0.999766 -80.87 0.020957 22.975
8.77125000 0.020924 -4.654 0.999766 -80.87 0.999766 -80.87 0.020927 22.981
8.77130000 0.020892 -4.661 0.999766 -80.88 0.999766 -80.88 0.020895 22.987
8.77135000 0.020859 -4.668 0.999766 -80.88 0.999766 -80.88 0.020862 22.993
8.77140000 0.020824 -4.676 0.999766 -80.88 0.999766 -80.88 0.020828 23.000
8.77145000 0.020788 -4.684 0.999766 -80.88 0.999766 -80.88 0.020791 23.007
8.77150000 0.020748 -4.692 0.999766 -80.89 0.999766 -80.89 0.020752 23.015
8.77155000 0.020707 -4.700 0.999766 -80.89 0.999766 -80.89 0.020710 23.023
8.77160000 0.020662 -4.709 0.999766 -80.89 0.999766 -80.89 0.020666 23.031
8.77165000 0.020615 -4.718 0.999766 -80.89 0.999766 -80.89 0.020619 23.041
8.77170000 0.020564 -4.727 0.999766 -80.90 0.999766 -80.90 0.020568 23.051
8.77175000 0.020510 -4.736 0.999765 -80.90 0.999765 -80.90 0.020514 23.062
8.77180000 0.020451 -4.746 0.999765 -80.91 0.999765 -80.91 0.020455 23.074
8.77185000 0.020387 -4.756 0.999764 -80.91 0.999764 -80.91 0.020391 23.087
8.77190000 0.020318 -4.766 0.999763 -80.91 0.999763 -80.91 0.020322 23.101
8.77195000 0.020242 -4.777 0.999762 -80.92 0.999762 -80.92 0.020247 23.117
8.77200000 0.020159 -4.788 0.999761 -80.92 0.999761 -80.92 0.020164 23.135
8.77205000 0.020068 -4.799 0.999759 -80.93 0.999759 -80.93 0.020073 23.156
8.77210000 0.019966 -4.811 0.999757 -80.94 0.999757 -80.94 0.019972 23.179
8.77215000 0.019853 -4.823 0.999755 -80.94 0.999755 -80.94 0.019859 23.206
8.77220000 0.019725 -4.835 0.999752 -80.95 0.999752 -80.95 0.019732 23.238
8.77225000 0.019581 -4.847 0.999748 -80.96 0.999748 -80.96 0.019588 23.275
8.77230000 0.019415 -4.858 0.999742 -80.97 0.999742 -80.97 0.019424 23.321
8.77235000 0.019223 -4.869 0.999735 -80.98 0.999735 -80.98 0.019233 23.376
8.77240000 0.018999 -4.877 0.999725 -80.99 0.999725 -80.99 0.019010 23.446
8.77245000 0.018732 -4.881 0.999713 -81.01 0.999713 -81.01 0.018745 23.536
8.77250000 0.018409 -4.878 0.999695 -81.03 0.999695 -81.03 0.018426 23.656
8.77255000 0.018010 -4.861 0.999669 -81.05 0.999669 -81.05 0.018031 23.821
8.77260000 0.017505 -4.818 0.999630 -81.08 0.999630 -81.08 0.017532 24.059
8.77265000 0.016843 -4.722 0.999570 -81.12 0.999570 -81.12 0.016880 24.424
8.77270000 0.015940 -4.510 0.999471 -81.17 0.999471 -81.17 0.015993 25.037
8.77275000 0.014631 -4.006 0.999290 -81.25 0.999290 -81.25 0.014718 26.199
8.77280000 0.012575 -2.574 0.998915 -81.37 0.998915 -81.37 0.012741 28.910
8.77285000 0.008945 3.5357 0.997960 -81.58 0.997960 -81.58 0.009400 38.330
8.77290000 0.004684 79.440 0.994318 -82.05 0.994318 -82.05 0.006745 103.81
8.77295000 0.043566 111.88 0.959694 -83.19 0.959694 -83.19 0.045372 132.86
8.77300000 0.060199 19.539 0.977350 -78.83 0.977350 -78.83 0.060910 43.444
8.77305000 0.039616 3.5622 0.995115 -79.82 0.995115 -79.82 0.039833 28.641
8.77310000 0.033106 -0.221 0.997818 -80.19 0.997818 -80.19 0.033211 25.478
8.77315000 0.030029 -1.756 0.998680 -80.37 0.998680 -80.37 0.030091 24.325
8.77320000 0.028245 -2.553 0.999062 -80.47 0.999062 -80.47 0.028286 23.787
8.77325000 0.027082 -3.031 0.999266 -80.54 0.999266 -80.54 0.027112 23.498
8.77330000 0.026264 -3.345 0.999389 -80.59 0.999389 -80.59 0.026287 23.327
8.77335000 0.025657 -3.566 0.999468 -80.62 0.999468 -80.62 0.025675 23.220
8.77340000 0.025189 -3.728 0.999523 -80.65 0.999523 -80.65 0.025203 23.150
8.77345000 0.024816 -3.853 0.999563 -80.67 0.999563 -80.67 0.024828 23.102
8.77350000 0.024512 -3.952 0.999593 -80.69 0.999593 -80.69 0.024522 23.068
8.77355000 0.024259 -4.032 0.999615 -80.70 0.999615 -80.70 0.024268 23.045
8.77360000 0.024045 -4.098 0.999634 -80.72 0.999634 -80.72 0.024053 23.028
8.77365000 0.023862 -4.154 0.999648 -80.73 0.999648 -80.73 0.023869 23.015
8.77370000 0.023703 -4.202 0.999660 -80.74 0.999660 -80.74 0.023709 23.007
8.77375000 0.023563 -4.243 0.999670 -80.75 0.999670 -80.75 0.023569 23.000
8.77380000 0.023440 -4.280 0.999678 -80.75 0.999678 -80.75 0.023446 22.996
8.77385000 0.023330 -4.312 0.999686 -80.76 0.999686 -80.76 0.023336 22.993
8.77390000 0.023232 -4.341 0.999692 -80.77 0.999692 -80.77 0.023237 22.992
8.77395000 0.023142 -4.366 0.999697 -80.77 0.999697 -80.77 0.023147 22.991
8.77400000 0.023062 -4.390 0.999702 -80.78 0.999702 -80.78 0.023066 22.991
8.77405000 0.022988 -4.412 0.999706 -80.78 0.999706 -80.78 0.022992 22.991
8.77410000 0.022920 -4.432 0.999710 -80.79 0.999710 -80.79 0.022924 22.992
8.77415000 0.022857 -4.450 0.999713 -80.79 0.999713 -80.79 0.022861 22.994
8.77420000 0.022799 -4.467 0.999716 -80.79 0.999716 -80.79 0.022803 22.995
8.77425000 0.022745 -4.483 0.999719 -80.80 0.999719 -80.80 0.022749 22.997
8.77430000 0.022695 -4.498 0.999721 -80.80 0.999721 -80.80 0.022699 22.999
8.77435000 0.022648 -4.512 0.999723 -80.80 0.999723 -80.80 0.022652 23.001
8.77440000 0.022604 -4.526 0.999725 -80.81 0.999725 -80.81 0.022608 23.004
8.77445000 0.022563 -4.538 0.999727 -80.81 0.999727 -80.81 0.022566 23.006
8.77450000 0.022524 -4.550 0.999729 -80.81 0.999729 -80.81 0.022527 23.009
8.77455000 0.022487 -4.562 0.999730 -80.81 0.999730 -80.81 0.022490 23.011
8.77460000 0.022452 -4.573 0.999732 -80.82 0.999732 -80.82 0.022455 23.014
8.77465000 0.022419 -4.584 0.999733 -80.82 0.999733 -80.82 0.022422 23.017
8.77470000 0.022388 -4.594 0.999734 -80.82 0.999734 -80.82 0.022391 23.020
8.77475000 0.022358 -4.604 0.999736 -80.82 0.999736 -80.82 0.022360 23.023
8.77480000 0.022329 -4.613 0.999737 -80.83 0.999737 -80.83 0.022332 23.025
8.77485000 0.022301 -4.622 0.999738 -80.83 0.999738 -80.83 0.022304 23.028
8.77490000 0.022275 -4.631 0.999739 -80.83 0.999739 -80.83 0.022278 23.031
8.77495000 0.022250 -4.640 0.999740 -80.83 0.999740 -80.83 0.022252 23.034
8.77500000 0.022225 -4.649 0.999741 -80.83 0.999741 -80.83 0.022228 23.037
8.77505000 0.022202 -4.657 0.999742 -80.84 0.999742 -80.84 0.022205 23.040
8.77510000 0.022180 -4.665 0.999742 -80.84 0.999742 -80.84 0.022182 23.043
8.77515000 0.022158 -4.673 0.999743 -80.84 0.999743 -80.84 0.022160 23.046
8.77520000 0.022137 -4.681 0.999744 -80.84 0.999744 -80.84 0.022139 23.049
8.77525000 0.022116 -4.688 0.999745 -80.84 0.999745 -80.84 0.022119 23.053
8.77530000 0.022097 -4.696 0.999745 -80.84 0.999745 -80.84 0.022099 23.056
8.77535000 0.022078 -4.703 0.999746 -80.85 0.999746 -80.85 0.022080 23.059
8.77540000 0.022059 -4.710 0.999746 -80.85 0.999746 -80.85 0.022062 23.062
8.77545000 0.022041 -4.717 0.999747 -80.85 0.999747 -80.85 0.022044 23.065
8.77550000 0.022024 -4.724 0.999748 -80.85 0.999748 -80.85 0.022026 23.068
8.77555000 0.022007 -4.731 0.999748 -80.85 0.999748 -80.85 0.022009 23.071
8.77560000 0.021990 -4.738 0.999749 -80.85 0.999749 -80.85 0.021992 23.074
8.77565000 0.021974 -4.744 0.999749 -80.85 0.999749 -80.85 0.021976 23.077
8.77570000 0.021958 -4.751 0.999750 -80.86 0.999750 -80.86 0.021960 23.080
8.77575000 0.021942 -4.757 0.999750 -80.86 0.999750 -80.86 0.021945 23.084
8.77580000 0.021927 -4.764 0.999751 -80.86 0.999751 -80.86 0.021930 23.087
8.77585000 0.021913 -4.770 0.999751 -80.86 0.999751 -80.86 0.021915 23.090
8.77590000 0.021898 -4.777 0.999751 -80.86 0.999751 -80.86 0.021901 23.093
8.77595000 0.021884 -4.783 0.999752 -80.86 0.999752 -80.86 0.021886 23.096
8.77600000 0.021870 -4.789 0.999752 -80.86 0.999752 -80.86 0.021873 23.099
8.77605000 0.021856 -4.795 0.999753 -80.87 0.999753 -80.87 0.021859 23.102
8.77610000 0.021843 -4.801 0.999753 -80.87 0.999753 -80.87 0.021846 23.106
8.77615000 0.021830 -4.807 0.999753 -80.87 0.999753 -80.87 0.021832 23.109
8.77620000 0.021817 -4.813 0.999754 -80.87 0.999754 -80.87 0.021819 23.112
8.77625000 0.021804 -4.819 0.999754 -80.87 0.999754 -80.87 0.021807 23.115
8.77630000 0.021792 -4.825 0.999755 -80.87 0.999755 -80.87 0.021794 23.118
8.77635000 0.021780 -4.831 0.999755 -80.87 0.999755 -80.87 0.021782 23.122
8.77640000 0.021768 -4.837 0.999755 -80.87 0.999755 -80.87 0.021770 23.125
8.77645000 0.021756 -4.843 0.999756 -80.87 0.999756 -80.87 0.021758 23.128
8.77650000 0.021744 -4.849 0.999756 -80.88 0.999756 -80.88 0.021746 23.131
8.77655000 0.021732 -4.854 0.999756 -80.88 0.999756 -80.88 0.021735 23.134
8.77660000 0.021721 -4.860 0.999756 -80.88 0.999756 -80.88 0.021723 23.138
8.77665000 0.021710 -4.866 0.999757 -80.88 0.999757 -80.88 0.021712 23.141
8.77670000 0.021699 -4.872 0.999757 -80.88 0.999757 -80.88 0.021701 23.144
8.77675000 0.021688 -4.877 0.999757 -80.88 0.999757 -80.88 0.021690 23.147
8.77680000 0.021677 -4.883 0.999758 -80.88 0.999758 -80.88 0.021679 23.150
8.77685000 0.021666 -4.889 0.999758 -80.88 0.999758 -80.88 0.021668 23.154
8.77690000 0.021655 -4.894 0.999758 -80.88 0.999758 -80.88 0.021658 23.157
8.77695000 0.021645 -4.900 0.999758 -80.89 0.999758 -80.89 0.021647 23.160
8.77700000 0.021635 -4.905 0.999759 -80.89 0.999759 -80.89 0.021637 23.163
8.77705000 0.021624 -4.911 0.999759 -80.89 0.999759 -80.89 0.021627 23.167
8.77710000 0.021614 -4.917 0.999759 -80.89 0.999759 -80.89 0.021616 23.170
8.77715000 0.021604 -4.922 0.999759 -80.89 0.999759 -80.89 0.021606 23.173
8.77720000 0.021594 -4.928 0.999760 -80.89 0.999760 -80.89 0.021596 23.176
8.77725000 0.021584 -4.933 0.999760 -80.89 0.999760 -80.89 0.021587 23.180
8.77730000 0.021574 -4.939 0.999760 -80.89 0.999760 -80.89 0.021577 23.183
8.77735000 0.021565 -4.944 0.999760 -80.89 0.999760 -80.89 0.021567 23.186
8.77740000 0.021555 -4.950 0.999761 -80.90 0.999761 -80.90 0.021557 23.190
8.77745000 0.021545 -4.955 0.999761 -80.90 0.999761 -80.90 0.021548 23.193
8.77750000 0.021536 -4.961 0.999761 -80.90 0.999761 -80.90 0.021538 23.196
8.77755000 0.021527 -4.966 0.999761 -80.90 0.999761 -80.90 0.021529 23.200
8.77760000 0.021517 -4.972 0.999762 -80.90 0.999762 -80.90 0.021520 23.203
8.77765000 0.021508 -4.977 0.999762 -80.90 0.999762 -80.90 0.021510 23.206
8.77770000 0.021499 -4.982 0.999762 -80.90 0.999762 -80.90 0.021501 23.210
8.77775000 0.021490 -4.988 0.999762 -80.90 0.999762 -80.90 0.021492 23.213
8.77780000 0.021480 -4.993 0.999763 -80.90 0.999763 -80.90 0.021483 23.216
8.77785000 0.021471 -4.999 0.999763 -80.90 0.999763 -80.90 0.021474 23.220
8.77790000 0.021462 -5.004 0.999763 -80.91 0.999763 -80.91 0.021465 23.223
8.77795000 0.021453 -5.010 0.999763 -80.91 0.999763 -80.91 0.021456 23.226
8.77800000 0.021445 -5.015 0.999763 -80.91 0.999763 -80.91 0.021447 23.230
8.77805000 0.021436 -5.021 0.999764 -80.91 0.999764 -80.91 0.021438 23.233
8.77810000 0.021427 -5.026 0.999764 -80.91 0.999764 -80.91 0.021429 23.237
8.77815000 0.021418 -5.031 0.999764 -80.91 0.999764 -80.91 0.021420 23.240
8.77820000 0.021409 -5.037 0.999764 -80.91 0.999764 -80.91 0.021412 23.243
8.77825000 0.021401 -5.042 0.999764 -80.91 0.999764 -80.91 0.021403 23.247
8.77830000 0.021392 -5.048 0.999765 -80.91 0.999765 -80.91 0.021394 23.250
8.77835000 0.021384 -5.053 0.999765 -80.91 0.999765 -80.91 0.021386 23.254
8.77840000 0.021375 -5.059 0.999765 -80.92 0.999765 -80.92 0.021377 23.257
8.77845000 0.021366 -5.064 0.999765 -80.92 0.999765 -80.92 0.021369 23.261
8.77850000 0.021358 -5.070 0.999765 -80.92 0.999765 -80.92 0.021360 23.264
8.77855000 0.021350 -5.075 0.999766 -80.92 0.999766 -80.92 0.021352 23.268
8.77860000 0.021341 -5.080 0.999766 -80.92 0.999766 -80.92 0.021343 23.271
8.77865000 0.021333 -5.086 0.999766 -80.92 0.999766 -80.92 0.021335 23.275
8.77870000 0.021324 -5.091 0.999766 -80.92 0.999766 -80.92 0.021327 23.278
8.77875000 0.021316 -5.097 0.999766 -80.92 0.999766 -80.92 0.021318 23.282
8.77880000 0.021308 -5.102 0.999766 -80.92 0.999766 -80.92 0.021310 23.285
8.77885000 0.021299 -5.108 0.999767 -80.92 0.999767 -80.92 0.021302 23.289
8.77890000 0.021291 -5.113 0.999767 -80.92 0.999767 -80.92 0.021294 23.292
8.77895000 0.021283 -5.119 0.999767 -80.93 0.999767 -80.93 0.021285 23.296
8.77900000 0.021275 -5.124 0.999767 -80.93 0.999767 -80.93 0.021277 23.299
8.77905000 0.021267 -5.130 0.999767 -80.93 0.999767 -80.93 0.021269 23.303
8.77910000 0.021258 -5.135 0.999768 -80.93 0.999768 -80.93 0.021261 23.306
8.77915000 0.021250 -5.141 0.999768 -80.93 0.999768 -80.93 0.021253 23.310
8.77920000 0.021242 -5.146 0.999768 -80.93 0.999768 -80.93 0.021244 23.314
8.77925000 0.021234 -5.152 0.999768 -80.93 0.999768 -80.93 0.021236 23.317
8.77930000 0.021226 -5.157 0.999768 -80.93 0.999768 -80.93 0.021228 23.321
8.77935000 0.021218 -5.163 0.999768 -80.93 0.999768 -80.93 0.021220 23.325
8.77940000 0.021210 -5.168 0.999769 -80.93 0.999769 -80.93 0.021212 23.328
8.77945000 0.021202 -5.174 0.999769 -80.94 0.999769 -80.94 0.021204 23.332
8.77950000 0.021194 -5.179 0.999769 -80.94 0.999769 -80.94 0.021196 23.335
8.77955000 0.021186 -5.185 0.999769 -80.94 0.999769 -80.94 0.021188 23.339
8.77960000 0.021178 -5.190 0.999769 -80.94 0.999769 -80.94 0.021180 23.343