! Sonnet Data File
! From: emgraph Version : 16.52
! From Project: 171117_Xmon_fullysym
! Data is De-embedded 
! Data File Written: 11/26/2017 21:44:47
!< HDATE 11/26/2017 17:24:49
!< MDATE 11/26/2017 17:24:49
!< PARAMS
!< Lj = 11.0
!< Gap = 1.0
!< Pwid = 2000.0
!< Airgap = 6.0
!< Width = 10.0
!< Lj1 = 10.8
!< END PARAMS
# GHZ S MA R 50.90000
8.600000000000001 0.0251642850555 -0.519731708584 0.9996800224203 -79.03778702571 0.9996800224203 -79.03778702599 0.0251652478328 22.454513878466
!< P1 F=8.6 Eeff=(6.44845572 -2.9799e-5) Z0=(50.9087207 1.17006e-4) R=0.0 C=0.0 
!< P2 F=8.6 Eeff=(6.44845572 -2.9799e-5) Z0=(50.9087207 1.17006e-4) R=0.0 C=0.0 
8.600200000000001 0.0251634385348 -0.522466215197 0.9996800434648 -79.03969146359 0.9996800434648 -79.03969146359 0.0251644014807 22.453440826516
8.600400000000000 0.0251625897404 -0.525201951576 0.9996800645390 -79.04159603561 0.9996800645390 -79.04159603561 0.0251635528348 22.452368703047
8.600600000000000 0.0251617386397 -0.527938891883 0.9996800856699 -79.04350074146 0.9996800856699 -79.04350074146 0.0251627018831 22.451297519665
8.600800000000001 0.0251608852281 -0.530677038581 0.9996801068576 -79.04540558143 0.9996801068576 -79.04540558143 0.0251618486207 22.450227278709
8.601000000000001 0.0251600294977 -0.533416395964 0.9996801281023 -79.04731055597 0.9996801281023 -79.04731055597 0.0251609930400 22.449157983214
8.601200000000000 0.0251591714428 -0.536156967204 0.9996801494042 -79.04921566542 0.9996801494042 -79.04921566542 0.0251601351350 22.448089635790
8.601400000000000 0.0251583110554 -0.538898756283 0.9996801707633 -79.05112091024 0.9996801707633 -79.05112091024 0.0251592748980 22.447022239911
8.601600000000001 0.0251574483291 -0.541641766993 0.9996801921799 -79.05302629081 0.9996801921799 -79.05302629081 0.0251584123224 22.445955798053
8.601800000000001 0.0251565832573 -0.544386002934 0.9996802136542 -79.05493180753 0.9996802136542 -79.05493180753 0.0251575474017 22.444890313071
8.602000000000000 0.0251557158320 -0.547131468207 0.9996802351863 -79.05683746084 0.9996802351863 -79.05683746084 0.0251566801278 22.443825788448
8.602200000000000 0.0251548460479 -0.549878165717 0.9996802567764 -79.05874325107 0.9996802567764 -79.05874325107 0.0251558104954 22.442762226514
8.602400000000001 0.0251539738962 -0.552626100311 0.9996802784246 -79.06064917873 0.9996802784246 -79.06064917873 0.0251549384959 22.441699630821
8.602600000000001 0.0251530993719 -0.555375274693 0.9996803001311 -79.06255524411 0.9996803001311 -79.06255524411 0.0251540641241 22.440638003618
8.602800000000000 0.0251522224664 -0.558125693429 0.9996803218961 -79.06446144772 0.9996803218961 -79.06446144772 0.0251531873715 22.439577348544
8.603000000000000 0.0251513431731 -0.560877360095 0.9996803437198 -79.06636778994 0.9996803437198 -79.06636778994 0.0251523082314 22.438517668298
8.603200000000001 0.0251504614853 -0.563630278349 0.9996803656022 -79.06827427116 0.9996803656022 -79.06827427116 0.0251514266972 22.437458965951
8.603400000000001 0.0251495773954 -0.566384452189 0.9996803875436 -79.07018089183 0.9996803875436 -79.07018089183 0.0251505427614 22.436401244619
8.603600000000000 0.0251486908965 -0.569139885534 0.9996804095442 -79.07208765235 0.9996804095442 -79.07208765235 0.0251496564168 22.435344507183
8.603800000000000 0.0251478019808 -0.571896582488 0.9996804316042 -79.07399455318 0.9996804316042 -79.07399455318 0.0251487676558 22.434288756964
8.604000000000001 0.0251469106419 -0.574654546457 0.9996804537236 -79.07590159470 0.9996804537236 -79.07590159470 0.0251478764720 22.433233996849
8.604200000000001 0.0251460168732 -0.577413781176 0.9996804759027 -79.07780877727 0.9996804759027 -79.07780877727 0.0251469828588 22.432180229439
8.604400000000000 0.0251451206653 -0.580174291508 0.9996804981416 -79.07971610148 0.9996804981416 -79.07971610148 0.0251460868067 22.431127458956
8.604600000000001 0.0251442220135 -0.582936080154 0.9996805204405 -79.08162356757 0.9996805204405 -79.08162356757 0.0251451883112 22.430075687217
8.604800000000001 0.0251433209080 -0.585699152403 0.9996805427997 -79.08353117613 0.9996805427997 -79.08353117613 0.0251442873623 22.429024918419
8.605000000000000 0.0251424173436 -0.588463511026 0.9996805652192 -79.08543892746 0.9996805652192 -79.08543892746 0.0251433839549 22.427975154888
8.605200000000000 0.0251415113111 -0.591229160939 0.9996805876992 -79.08734682211 0.9996805876992 -79.08734682211 0.0251424780798 22.426926400515
8.605400000000001 0.0251406028052 -0.593996105190 0.9996806102399 -79.08925486038 0.9996806102399 -79.08925486038 0.0251415697316 22.425878657533
8.605600000000001 0.0251396918156 -0.596764349239 0.9996806328417 -79.09116304286 0.9996806328417 -79.09116304286 0.0251406589002 22.424831930112
8.605800000000000 0.0251387783380 -0.599533895308 0.9996806555043 -79.09307136982 0.9996806555043 -79.09307136982 0.0251397455811 22.423786220560
8.606000000000000 0.0251378623620 -0.602304749206 0.9996806782283 -79.09497984187 0.9996806782283 -79.09497984187 0.0251388297640 22.422741532887
8.606200000000001 0.0251369438818 -0.605076913975 0.9996807010138 -79.09688845933 0.9996807010138 -79.09688845933 0.0251379114431 22.421697869726
8.606400000000001 0.0251360228895 -0.607850393873 0.9996807238608 -79.09879722268 0.9996807238608 -79.09879722268 0.0251369906106 22.420655234439
8.606600000000000 0.0251350993776 -0.610625193139 0.9996807467696 -79.10070613236 0.9996807467696 -79.10070613236 0.0251360672587 22.419613630229
8.606800000000000 0.0251341733377 -0.613401316005 0.9996807697404 -79.10261518884 0.9996807697404 -79.10261518884 0.0251351413793 22.418573060672
8.607000000000001 0.0251332447635 -0.616178766215 0.9996807927734 -79.10452439252 0.9996807927734 -79.10452439252 0.0251342129659 22.417533528513
8.607200000000001 0.0251323136459 -0.618957548328 0.9996808158687 -79.10643374391 0.9996808158687 -79.10643374391 0.0251332820096 22.416495037628
8.607400000000000 0.0251313799783 -0.621737666249 0.9996808390265 -79.10834324340 0.9996808390265 -79.10834324340 0.0251323485037 22.415457590693
8.607600000000000 0.0251304437521 -0.624519124480 0.9996808622471 -79.11025289149 0.9996808622471 -79.11025289149 0.0251314124396 22.414421191434
8.607800000000001 0.0251295049605 -0.627301926749 0.9996808855305 -79.11216268859 0.9996808855305 -79.11216268859 0.0251304738105 22.413385842901
8.608000000000001 0.0251285635943 -0.630086078059 0.9996809088770 -79.11407263524 0.9996809088770 -79.11407263524 0.0251295326072 22.412351548854
8.608200000000000 0.0251276196474 -0.632871581786 0.9996809322868 -79.11598273178 0.9996809322868 -79.11598273178 0.0251285888235 22.411318311937
8.608400000000001 0.0251266731100 -0.635658442941 0.9996809557600 -79.11789297879 0.9996809557600 -79.11789297879 0.0251276424498 22.410286136389
8.608600000000001 0.0251257239755 -0.638446665408 0.9996809792969 -79.11980337666 0.9996809792969 -79.11980337666 0.0251266934794 22.409255024878
8.608800000000000 0.0251247722356 -0.641236253554 0.9996810028977 -79.12171392587 0.9996810028977 -79.12171392587 0.0251257419040 22.408224981191
8.609000000000000 0.0251238178820 -0.644027211845 0.9996810265624 -79.12362462692 0.9996810265624 -79.12362462692 0.0251247877153 22.407196008735
8.609200000000001 0.0251228609073 -0.646819544426 0.9996810502914 -79.12553548023 0.9996810502914 -79.12553548023 0.0251238309059 22.406168110617
8.609400000000001 0.0251219013023 -0.649613256122 0.9996810740848 -79.12744648633 0.9996810740848 -79.12744648633 0.0251228714667 22.405141290798
8.609600000000000 0.0251209390612 -0.652408350211 0.9996810979427 -79.12935764558 0.9996810979427 -79.12935764558 0.0251219093918 22.404115551921
8.609800000000000 0.0251199741730 -0.655204832571 0.9996811218655 -79.13126895862 0.9996811218655 -79.13126895862 0.0251209446701 22.403090898491
8.610000000000001 0.0251190066316 -0.658002706513 0.9996811458532 -79.13318042579 0.9996811458532 -79.13318042579 0.0251199772957 22.402067333241
8.610200000000001 0.0251180364285 -0.660801976742 0.9996811699061 -79.13509204760 0.9996811699061 -79.13509204760 0.0251190072600 22.401044859643
8.610400000000000 0.0251170635550 -0.663602647824 0.9996811940244 -79.13700382456 0.9996811940244 -79.13700382456 0.0251180345544 22.400023481628
8.610600000000000 0.0251160880024 -0.666404724590 0.9996812182083 -79.13891575717 0.9996812182083 -79.13891575717 0.0251170591700 22.399003202718
8.610800000000001 0.0251151097638 -0.669208210821 0.9996812424579 -79.14082784585 0.9996812424579 -79.14082784585 0.0251160811000 22.397984026053
8.611000000000001 0.0251141288293 -0.672013111683 0.9996812667735 -79.14274009116 0.9996812667735 -79.14274009116 0.0251151003347 22.396965955692
8.611200000000000 0.0251131451917 -0.674819431400 0.9996812911553 -79.14465249354 0.9996812911553 -79.14465249354 0.0251141168666 22.395948994759
8.611400000000000 0.0251121588419 -0.677627174643 0.9996813156035 -79.14656505351 0.9996813156035 -79.14656505351 0.0251131306867 22.394933147196
8.611600000000001 0.0251111697722 -0.680436345580 0.9996813401181 -79.14847777152 0.9996813401181 -79.14847777152 0.0251121417874 22.393918416402
8.611800000000001 0.0251101779738 -0.683246949295 0.9996813646996 -79.15039064809 0.9996813646996 -79.15039064809 0.0251111501598 22.392904805844
8.612000000000000 0.0251091834379 -0.686058990196 0.9996813893480 -79.15230368374 0.9996813893480 -79.15230368374 0.0251101557951 22.391892319678
8.612200000000001 0.0251081861553 -0.688872473252 0.9996814140636 -79.15421687900 0.9996814140636 -79.15421687900 0.0251091586843 22.390880961638
8.612400000000001 0.0251071861191 -0.691687402736 0.9996814388466 -79.15613023427 0.9996814388466 -79.15613023427 0.0251081588202 22.389870734492
8.612600000000000 0.0251061833200 -0.694503783171 0.9996814636971 -79.15804375011 0.9996814636971 -79.15804375011 0.0251071561937 22.388861642493
8.612800000000000 0.0251051777483 -0.697321619992 0.9996814886155 -79.15995742706 0.9996814886155 -79.15995742706 0.0251061507950 22.387853689662
8.613000000000001 0.0251041693972 -0.700140917010 0.9996815136018 -79.16187126555 0.9996815136018 -79.16187126555 0.0251051426173 22.386846878972
8.613200000000001 0.0251031582564 -0.702961679673 0.9996815386564 -79.16378526617 0.9996815386564 -79.16378526617 0.0251041316505 22.385841214823
8.613400000000000 0.0251021443178 -0.705783912525 0.9996815637793 -79.16569942939 0.9996815637793 -79.16569942939 0.0251031178861 22.384836700685
8.613600000000000 0.0251011275724 -0.708607620238 0.9996815889709 -79.16761375573 0.9996815889709 -79.16761375573 0.0251021013156 22.383833340349
8.613800000000001 0.0251001080118 -0.711432807404 0.9996816142312 -79.16952824570 0.9996816142312 -79.16952824570 0.0251010819302 22.382831137708
8.614000000000001 0.0250990856269 -0.714259479140 0.9996816395607 -79.17144289982 0.9996816395607 -79.17144289982 0.0251000597210 22.381830096252
8.614200000000000 0.0250980604085 -0.717087640453 0.9996816649594 -79.17335771863 0.9996816649594 -79.17335771863 0.0250990346788 22.380830220066
8.614400000000000 0.0250970323473 -0.719917296177 0.9996816904275 -79.17527270267 0.9996816904275 -79.17527270267 0.0250980067942 22.379831513295
8.614600000000001 0.0250960014350 -0.722748451016 0.9996817159653 -79.17718785244 0.9996817159653 -79.17718785244 0.0250969760589 22.378833979388
8.614800000000001 0.0250949676629 -0.725581109661 0.9996817415730 -79.17910316844 0.9996817415730 -79.17910316844 0.0250959424643 22.377837622027
8.615000000000000 0.0250939310200 -0.728415277897 0.9996817672508 -79.18101865131 0.9996817672508 -79.18101865131 0.0250949059994 22.376842445928
8.615200000000000 0.0250928914998 -0.731250959484 0.9996817929989 -79.18293430143 0.9996817929989 -79.18293430143 0.0250938666577 22.375848453984
8.615400000000001 0.0250918490920 -0.734088160089 0.9996818188175 -79.18485011942 0.9996818188175 -79.18485011942 0.0250928244288 22.374855650588
8.615600000000001 0.0250908037871 -0.736926884786 0.9996818447069 -79.18676610582 0.9996818447069 -79.18676610582 0.0250917793032 22.373864039736
8.615800000000000 0.0250897555758 -0.739767138508 0.9996818706673 -79.18868226117 0.9996818706673 -79.18868226117 0.0250907312717 22.372873625437
8.616000000000000 0.0250887044495 -0.742608925993 0.9996818966989 -79.19059858598 0.9996818966989 -79.19059858598 0.0250896803258 22.371884411492
8.616200000000001 0.0250876503977 -0.745452252976 0.9996819228018 -79.19251508087 0.9996819228018 -79.19251508087 0.0250886264547 22.370896402305
8.616400000000001 0.0250865934126 -0.748297123714 0.9996819489764 -79.19443174629 0.9996819489764 -79.19443174629 0.0250875696509 22.369909601201
8.616600000000000 0.0250855334834 -0.751143544067 0.9996819752229 -79.19634858287 0.9996819752229 -79.19634858287 0.0250865099034 22.368924012969
8.616800000000001 0.0250844706018 -0.753991518613 0.9996820015415 -79.19826559110 0.9996820015415 -79.19826559110 0.0250854472040 22.367939640982
8.617000000000001 0.0250834047581 -0.756841052512 0.9996820279323 -79.20018277154 0.9996820279323 -79.20018277154 0.0250843815431 22.366956489595
8.617200000000000 0.0250823359422 -0.759692151429 0.9996820543957 -79.20210012480 0.9996820543957 -79.20210012480 0.0250833129103 22.365974562970
8.617400000000000 0.0250812641447 -0.762544820541 0.9996820809319 -79.20401765141 0.9996820809319 -79.20401765141 0.0250822412964 22.364993865021
8.617600000000001 0.0250801893563 -0.765399064445 0.9996821075410 -79.20593535193 0.9996821075410 -79.20593535193 0.0250811666921 22.364014400333
8.617800000000001 0.0250791115670 -0.768254889042 0.9996821342233 -79.20785322692 0.9996821342233 -79.20785322692 0.0250800890875 22.363036172610
8.618000000000000 0.0250780307675 -0.771112299250 0.9996821609791 -79.20977127695 0.9996821609791 -79.20977127695 0.0250790084731 22.362059186123
8.618200000000000 0.0250769469481 -0.773971300250 0.9996821878085 -79.21168950259 0.9996821878085 -79.21168950259 0.0250779248393 22.361083445060
8.618400000000001 0.0250758600980 -0.776831898017 0.9996822147118 -79.21360790445 0.9996822147118 -79.21360790445 0.0250768381753 22.360108953887
8.618600000000001 0.0250747702085 -0.779694097480 0.9996822416893 -79.21552648305 0.9996822416893 -79.21552648305 0.0250757484723 22.359135716470
8.618800000000000 0.0250736772691 -0.782557903959 0.9996822687412 -79.21744523900 0.9996822687412 -79.21744523900 0.0250746557201 22.358163737237
8.619000000000000 0.0250725812704 -0.785423322847 0.9996822958676 -79.21936417286 0.9996822958676 -79.21936417286 0.0250735599089 22.357193020471
8.619200000000001 0.0250714822024 -0.788290359589 0.9996823230689 -79.22128328521 0.9996823230689 -79.22128328521 0.0250724610290 22.356223570195
8.619400000000001 0.0250703800548 -0.791159019666 0.9996823503453 -79.22320257665 0.9996823503453 -79.22320257665 0.0250713590700 22.355255390917
8.619600000000000 0.0250692748180 -0.794029308421 0.9996823776969 -79.22512204774 0.9996823776969 -79.22512204774 0.0250702540224 22.354288486793
8.619800000000000 0.0250681664812 -0.796901231894 0.9996824051242 -79.22704169913 0.9996824051242 -79.22704169913 0.0250691458751 22.353322862439
8.620000000000001 0.0250670550339 -0.799774795351 0.9996824326272 -79.22896153140 0.9996824326272 -79.22896153140 0.0250680346180 22.352358522516
8.620200000000001 0.0250659404676 -0.802650004008 0.9996824602063 -79.23088154508 0.9996824602063 -79.23088154508 0.0250669202423 22.351395470369
8.620400000000000 0.0250648227712 -0.805526863343 0.9996824878616 -79.23280174081 0.9996824878616 -79.23280174081 0.0250658027369 22.350433711269
8.620600000000001 0.0250637019336 -0.808405379748 0.9996825155934 -79.23472211923 0.9996825155934 -79.23472211923 0.0250646820911 22.349473249507
8.620800000000001 0.0250625779460 -0.811285557923 0.9996825434020 -79.23664268087 0.9996825434020 -79.23664268087 0.0250635582956 22.348514089278
8.621000000000000 0.0250614507970 -0.814167404173 0.9996825712876 -79.23856342638 0.9996825712876 -79.23856342638 0.0250624313393 22.347556235157
8.621200000000000 0.0250603204763 -0.817050923983 0.9996825992505 -79.24048435637 0.9996825992505 -79.24048435637 0.0250613012118 22.346599691678
8.621400000000001 0.0250591869739 -0.819936122814 0.9996826272907 -79.24240547144 0.9996826272907 -79.24240547144 0.0250601679031 22.345644463409
8.621600000000001 0.0250580502786 -0.822823007059 0.9996826554089 -79.24432677222 0.9996826554089 -79.24432677222 0.0250590314021 22.344690554696
8.621800000000000 0.0250569103804 -0.825711581814 0.9996826836049 -79.24624825931 0.9996826836049 -79.24624825931 0.0250578916987 22.343737970315
8.622000000000000 0.0250557672683 -0.828601853184 0.9996827118793 -79.24816993335 0.9996827118793 -79.24816993335 0.0250567487819 22.342786714685
8.622200000000001 0.0250546209323 -0.831493826725 0.9996827402321 -79.25009179493 0.9996827402321 -79.25009179493 0.0250556026418 22.341836792297
8.622400000000001 0.0250534713613 -0.834387508341 0.9996827686636 -79.25201384470 0.9996827686636 -79.25201384470 0.0250544532672 22.340888208006
8.622600000000000 0.0250523185442 -0.837282904506 0.9996827971742 -79.25393608330 0.9996827971742 -79.25393608330 0.0250533006469 22.339940966163
8.622800000000000 0.0250511624710 -0.840180020035 0.9996828257640 -79.25585851131 0.9996828257640 -79.25585851131 0.0250521447713 22.338995071664
8.623000000000001 0.0250500031292 -0.843078862189 0.9996828544333 -79.25778112949 0.9996828544333 -79.25778112949 0.0250509856275 22.338050529479
8.623200000000001 0.0250488405108 -0.845979435160 0.9996828831823 -79.25970393828 0.9996828831823 -79.25970393828 0.0250498232077 22.337107343418
8.623400000000000 0.0250476746018 -0.848881746646 0.9996829120114 -79.26162693851 0.9996829120114 -79.26162693851 0.0250486574977 22.336165519269
8.623600000000000 0.0250465053934 -0.851785801580 0.9996829409208 -79.26355013069 0.9996829409208 -79.26355013069 0.0250474884890 22.335225060733
8.623800000000001 0.0250453328729 -0.854691606829 0.9996829699108 -79.26547351558 0.9996829699108 -79.26547351558 0.0250463161687 22.334285973424
8.624000000000001 0.0250441570307 -0.857599167522 0.9996829989816 -79.26739709372 0.9996829989816 -79.26739709372 0.0250451405272 22.333348261636
8.624200000000000 0.0250429778545 -0.860508490378 0.9996830281333 -79.26932086584 0.9996830281333 -79.26932086584 0.0250439615524 22.332411930544
8.624400000000001 0.0250417953334 -0.863419581404 0.9996830573665 -79.27124483258 0.9996830573665 -79.27124483258 0.0250427792331 22.331476984878
8.624600000000001 0.0250406094563 -0.866332446866 0.9996830866812 -79.27316899458 0.9996830866812 -79.27316899458 0.0250415935585 22.330543429336
8.624800000000000 0.0250394202126 -0.869247092396 0.9996831160778 -79.27509335248 0.9996831160778 -79.27509335248 0.0250404045177 22.329611268556
8.625000000000000 0.0250382275892 -0.872163524996 0.9996831455566 -79.27701790703 0.9996831455566 -79.27701790703 0.0250392120979 22.328680508311
8.625200000000001 0.0250370315767 -0.875081750173 0.9996831751178 -79.27894265877 0.9996831751178 -79.27894265877 0.0250380162895 22.327751152368
8.625400000000001 0.0250358321626 -0.878001774142 0.9996832047615 -79.28086760845 0.9996832047615 -79.28086760845 0.0250368170801 22.326823206676
8.625600000000000 0.0250346293344 -0.880923604264 0.9996832344882 -79.28279275680 0.9996832344882 -79.28279275680 0.0250356144572 22.325896676126
8.625800000000000 0.0250334230824 -0.883847245981 0.9996832642982 -79.28471810439 0.9996832642982 -79.28471810439 0.0250344084110 22.324971564949
8.626000000000001 0.0250322133937 -0.886772705986 0.9996832941917 -79.28664365197 0.9996832941917 -79.28664365197 0.0250331989287 22.324047878949
8.626200000000001 0.0250310002571 -0.889699990256 0.9996833241688 -79.28856940018 0.9996833241688 -79.28856940018 0.0250319859992 22.323125622956
8.626400000000000 0.0250297836613 -0.892629105404 0.9996833542300 -79.29049534970 0.9996833542300 -79.29049534970 0.0250307696109 22.322204801773
8.626600000000000 0.0250285635929 -0.895560058430 0.9996833843756 -79.29242150131 0.9996833843756 -79.29242150131 0.0250295497507 22.321285421131
8.626800000000001 0.0250273400417 -0.898492855343 0.9996834146058 -79.29434785561 0.9996834146058 -79.29434785561 0.0250283264083 22.320367485415
8.627000000000001 0.0250261129963 -0.901427501926 0.9996834449208 -79.29627441327 0.9996834449208 -79.29627441327 0.0250270995722 22.319450999880
8.627200000000000 0.0250248824424 -0.904364006138 0.9996834753209 -79.29820117511 0.9996834753209 -79.29820117511 0.0250258692282 22.318535970422
8.627400000000000 0.0250236483695 -0.907302373817 0.9996835058065 -79.30012814176 0.9996835058065 -79.30012814176 0.0250246353659 22.317622401524
8.627600000000001 0.0250224107658 -0.910242611436 0.9996835363779 -79.30205531391 0.9996835363779 -79.30205531391 0.0250233979733 22.316710298499
8.627800000000001 0.0250211696174 -0.913184726376 0.9996835670352 -79.30398269236 0.9996835670352 -79.30398269236 0.0250221570367 22.315799667311
8.628000000000000 0.0250199249152 -0.916128723952 0.9996835977788 -79.30591027765 0.9996835977788 -79.30591027765 0.0250209125467 22.314890511877
8.628200000000001 0.0250186766442 -0.919074612058 0.9996836286090 -79.30783807067 0.9996836286090 -79.30783807067 0.0250196644887 22.313982838766
8.628400000000001 0.0250174247932 -0.922022397192 0.9996836595261 -79.30976607206 0.9996836595261 -79.30976607206 0.0250184128512 22.313076652562
8.628600000000000 0.0250161693496 -0.924972085744 0.9996836905303 -79.31169428256 0.9996836905303 -79.31169428256 0.0250171576218 22.312171959228
8.628800000000000 0.0250149103005 -0.927923685266 0.9996837216220 -79.31362270292 0.9996837216220 -79.31362270292 0.0250158987875 22.311268763785
8.629000000000001 0.0250136476349 -0.930877201566 0.9996837528014 -79.31555133380 0.9996837528014 -79.31555133380 0.0250146363373 22.310367071372
8.629200000000001 0.0250123813390 -0.933832642201 0.9996837840688 -79.31748017599 0.9996837840688 -79.31748017599 0.0250133702575 22.309466887813
8.629400000000000 0.0250111114008 -0.936790013795 0.9996838154246 -79.31940923021 0.9996838154246 -79.31940923021 0.0250121005359 22.308568218483
8.629600000000000 0.0250098378073 -0.939749323531 0.9996838468690 -79.32133849721 0.9996838468690 -79.32133849721 0.0250108271597 22.307671068773
8.629800000000001 0.0250085605452 -0.942710578664 0.9996838784024 -79.32326797777 0.9996838784024 -79.32326797777 0.0250095501154 22.306775444568
8.630000000000001 0.0250072796028 -0.945673785357 0.9996839100249 -79.32519767257 0.9996839100249 -79.32519767257 0.0250082693916 22.305881351019
8.630200000000000 0.0250059949677 -0.948638950866 0.9996839417370 -79.32712758234 0.9996839417370 -79.32712758234 0.0250069849756 22.304988793403
8.630400000000000 0.0250047066255 -0.951606082603 0.9996839735388 -79.32905770793 0.9996839735388 -79.32905770793 0.0250056968532 22.304097778128
8.630600000000001 0.0250034145633 -0.954575187843 0.9996840054308 -79.33098805008 0.9996840054308 -79.33098805008 0.0250044050114 22.303208310628
8.630800000000001 0.0250021187689 -0.957546273651 0.9996840374134 -79.33291860951 0.9996840374134 -79.33291860951 0.0250031094381 22.302320395924
8.631000000000000 0.0250008192292 -0.960519346761 0.9996840694867 -79.33484938699 0.9996840694867 -79.33484938699 0.0250018101201 22.301434040184
8.631200000000000 0.0249995159308 -0.963494414522 0.9996841016510 -79.33678038330 0.9996841016510 -79.33678038330 0.0250005070441 22.300549249129
8.631400000000001 0.0249982088601 -0.966471484595 0.9996841339066 -79.33871159924 0.9996841339066 -79.33871159924 0.0249992001964 22.299666028550
8.631600000000001 0.0249968980044 -0.969450563717 0.9996841662539 -79.34064303556 0.9996841662539 -79.34064303556 0.0249978895643 22.298784384085
8.631800000000000 0.0249955833503 -0.972431659613 0.9996841986933 -79.34257469302 0.9996841986933 -79.34257469302 0.0249965751346 22.297904321240
8.632000000000000 0.0249942648838 -0.975414779547 0.9996842312249 -79.34450657246 0.9996842312249 -79.34450657246 0.0249952568931 22.297025846490
8.632200000000001 0.0249929425926 -0.978399930634 0.9996842638492 -79.34643867460 0.9996842638492 -79.34643867460 0.0249939348275 22.296148964966
8.632400000000001 0.0249916164617 -0.981387120859 0.9996842965663 -79.34837100031 0.9996842965663 -79.34837100031 0.0249926089228 22.295273683261
8.632600000000000 0.0249902864787 -0.984376356919 0.9996843293767 -79.35030355031 0.9996843293767 -79.35030355031 0.0249912791669 22.294400006812
8.632800000000001 0.0249889526287 -0.987367647483 0.9996843622808 -79.35223632549 0.9996843622808 -79.35223632549 0.0249899455445 22.293527941848
8.633000000000001 0.0249876148989 -0.990360998970 0.9996843952786 -79.35416932659 0.9996843952786 -79.35416932659 0.0249886080431 22.292657494269
8.633200000000000 0.0249862732760 -0.993356419251 0.9996844283707 -79.35610255438 0.9996844283707 -79.35610255438 0.0249872666492 22.291788669553
8.633400000000000 0.0249849277442 -0.996353916798 0.9996844615575 -79.35803600980 0.9996844615575 -79.35803600980 0.0249859213470 22.290921474669
8.633600000000001 0.0249835782913 -0.999353498078 0.9996844948390 -79.35996969354 0.9996844948390 -79.35996969354 0.0249845721245 22.290055915056
8.633800000000001 0.0249822249030 -1.002355171168 0.9996845282157 -79.36190360647 0.9996845282157 -79.36190360647 0.0249832189672 22.289191996905
8.634000000000000 0.0249808675654 -1.005358943793 0.9996845616879 -79.36383774938 0.9996845616879 -79.36383774938 0.0249818618614 22.288329726067
8.634200000000000 0.0249795062607 -1.008364825319 0.9996845952561 -79.36577212331 0.9996845952561 -79.36577212331 0.0249805007892 22.287469110444
8.634400000000001 0.0249781409805 -1.011372820943 0.9996846289204 -79.36770672876 0.9996846289204 -79.36770672876 0.0249791357421 22.286610153594
8.634600000000001 0.0249767717080 -1.014382939361 0.9996846626812 -79.36964156672 0.9996846626812 -79.36964156672 0.0249777667034 22.285752863231
8.634800000000000 0.0249753984273 -1.017395189710 0.9996846965389 -79.37157663812 0.9996846965389 -79.37157663812 0.0249763936572 22.284897245683
8.635000000000000 0.0249740211265 -1.020409578357 0.9996847304938 -79.37351194363 0.9996847304938 -79.37351194363 0.0249750165917 22.284043306341
8.635200000000001 0.0249726397892 -1.023426114424 0.9996847645462 -79.37544748424 0.9996847645462 -79.37544748424 0.0249736354903 22.283191052463
8.635400000000001 0.0249712544012 -1.026444805314 0.9996847986964 -79.37738326077 0.9996847986964 -79.37738326077 0.0249722503390 22.282340490388
8.635600000000000 0.0249698649484 -1.029465659554 0.9996848329451 -79.37931927405 0.9996848329451 -79.37931927405 0.0249708611235 22.281491625598
8.635800000000000 0.0249684714162 -1.032488684338 0.9996848672921 -79.38125552492 0.9996848672921 -79.38125552492 0.0249694678295 22.280644465299
8.636000000000001 0.0249670737890 -1.035513888883 0.9996849017381 -79.38319201431 0.9996849017381 -79.38319201431 0.0249680704410 22.279799015716
8.636200000000001 0.0249656720525 -1.038541280697 0.9996849362833 -79.38512874304 0.9996849362833 -79.38512874304 0.0249666689441 22.278955283248
8.636400000000000 0.0249642661914 -1.041570868325 0.9996849709282 -79.38706571202 0.9996849709282 -79.38706571202 0.0249652633233 22.278113274606
8.636600000000001 0.0249628561909 -1.044602659961 0.9996850056730 -79.38900292211 0.9996850056730 -79.38900292211 0.0249638535638 22.277272996104
8.636800000000001 0.0249614420355 -1.047636663924 0.9996850405181 -79.39094037422 0.9996850405181 -79.39094037422 0.0249624396501 22.276434454660
8.637000000000000 0.0249600237106 -1.050672888387 0.9996850754638 -79.39287806920 0.9996850754638 -79.39287806920 0.0249610215678 22.275597656682
8.637200000000000 0.0249586012005 -1.053711342239 0.9996851105107 -79.39481600798 0.9996851105107 -79.39481600798 0.0249595993008 22.274762608681
8.637400000000001 0.0249571744894 -1.056752033727 0.9996851456589 -79.39675419146 0.9996851456589 -79.39675419146 0.0249581728337 22.273929317862
8.637600000000001 0.0249557435635 -1.059794970643 0.9996851809088 -79.39869262047 0.9996851809088 -79.39869262047 0.0249567421525 22.273097790293
8.637800000000000 0.0249543084060 -1.062840162394 0.9996852162608 -79.40063129599 0.9996852162608 -79.40063129599 0.0249553072405 22.272268033074
8.638000000000000 0.0249528690018 -1.065887617002 0.9996852517152 -79.40257021889 0.9996852517152 -79.40257021889 0.0249538680826 22.271440052972
8.638200000000001 0.0249514253345 -1.068937343788 0.9996852872726 -79.40450939015 0.9996852872726 -79.40450939015 0.0249524246623 22.270613856862
8.638400000000001 0.0249499773889 -1.071989350802 0.9996853229331 -79.40644881065 0.9996853229331 -79.40644881065 0.0249509769644 22.269789451797
8.638600000000000 0.0249485251495 -1.075043646962 0.9996853586971 -79.40838848129 0.9996853586971 -79.40838848129 0.0249495249736 22.268966844200
8.638800000000000 0.0249470686007 -1.078100240516 0.9996853945650 -79.41032840299 0.9996853945650 -79.41032840299 0.0249480686740 22.268146041217
8.639000000000001 0.0249456077248 -1.081159141326 0.9996854305373 -79.41226857679 0.9996854305373 -79.41226857679 0.0249466080482 22.267327050285
8.639200000000001 0.0249441425086 -1.084220357008 0.9996854666143 -79.41420900345 0.9996854666143 -79.41420900345 0.0249451430829 22.266509877176
8.639400000000000 0.0249426729327 -1.087283897593 0.9996855027962 -79.41614968412 0.9996855027962 -79.41614968412 0.0249436737586 22.265694530613
8.639600000000000 0.0249411989824 -1.090349771915 0.9996855390838 -79.41809061965 0.9996855390837 -79.41809061965 0.0249422000607 22.264881016558
8.639800000000001 0.0249397206413 -1.093417988455 0.9996855754770 -79.42003181100 0.9996855754770 -79.42003181100 0.0249407219729 22.264069342559
8.640000000000001 0.0249382378938 -1.096488555890 0.9996856119764 -79.42197325909 0.9996856119764 -79.42197325909 0.0249392394794 22.263259515563
8.640200000000000 0.0249367507226 -1.099561483980 0.9996856485824 -79.42391496493 0.9996856485824 -79.42391496493 0.0249377525630 22.262451542955