! Sonnet Data File
! From: emgraph Version : 16.52
! From Project: 171117_Xmon_fullysym
! Data is De-embedded 
! Data File Written: 11/26/2017 17:14:23
!< HDATE 11/22/2017 16:48:52
!< MDATE 11/23/2017 10:16:42
!< PARAMS
!< Lj = 11.0
!< Gap = 1.0
!< Pwid = 2000.0
!< Airgap = 6.0
!< Width = 10.0
!< Lj1 = 9.1
!< END PARAMS
# GHZ S MA R 50.90000
8.750000000000000 0.0240767373294 -2.930752409111 0.9997059995656 -80.49286653499 0.9997059995673 -80.49286653484 0.0240781204834 21.959303646543
!< P1 F=8.75 Eeff=(6.44841643 -2.9796e-5) Z0=(50.9085185 1.17018e-4) R=0.0 C=0.0 
!< P2 F=8.75 Eeff=(6.44841643 -2.9796e-5) Z0=(50.9085185 1.17018e-4) R=0.0 C=0.0 
8.750100000000000 0.0240723822990 -2.934566789466 0.9997061009525 -80.49404988773 0.9997061009525 -80.49404988773 0.0240737672231 21.960769020510
8.750200000000001 0.0240680101927 -2.938392510513 0.9997062027129 -80.49523424746 0.9997062027129 -80.49523424745 0.0240693968952 21.962243807254
8.750300000000001 0.0240636209099 -2.942229634476 0.9997063048492 -80.49641961993 0.9997063048492 -80.49641961993 0.0240650094011 21.963728074426
8.750400000000001 0.0240592143450 -2.946078235544 0.9997064073628 -80.49760601139 0.9997064073628 -80.49760601139 0.0240606046353 21.965221887502
8.750500000000001 0.0240547903860 -2.949938392806 0.9997065102559 -80.49879342846 0.9997065102559 -80.49879342846 0.0240561824862 21.966725314278
8.750600000000000 0.0240503489521 -2.953810168012 0.9997066135304 -80.49998187593 0.9997066135304 -80.49998187593 0.0240517428727 21.968238406141
8.750700000000000 0.0240458899383 -2.957693637213 0.9997067171884 -80.50117136001 0.9997067171885 -80.50117136001 0.0240472856900 21.969761226972
8.750800000000000 0.0240414132355 -2.961588879707 0.9997068212328 -80.50236188714 0.9997068212328 -80.50236188714 0.0240428108289 21.971293842171
8.750900000000000 0.0240369187501 -2.965495962439 0.9997069256644 -80.50355346287 0.9997069256644 -80.50355346287 0.0240383181961 21.972836312689
8.751000000000001 0.0240324063649 -2.969414969343 0.9997070304857 -80.50474609412 0.9997070304857 -80.50474609412 0.0240338076747 21.974388708755
8.751100000000001 0.0240278760014 -2.973345961763 0.9997071356988 -80.50593978556 0.9997071356988 -80.50593978556 0.0240292791859 21.975951081145
8.751200000000001 0.0240233275344 -2.977289026851 0.9997072413056 -80.50713454456 0.9997072413056 -80.50713454456 0.0240247326049 21.977523506168
8.751300000000001 0.0240187608591 -2.981244244389 0.9997073473095 -80.50833037734 0.9997073473095 -80.50833037734 0.0240201678265 21.979106045870
8.751400000000000 0.0240141758891 -2.985211676916 0.9997074537111 -80.50952728902 0.9997074537111 -80.50952728902 0.0240155847648 21.980698759009
8.751500000000000 0.0240095724939 -2.989191417351 0.9997075605131 -80.51072528731 0.9997075605131 -80.51072528731 0.0240109832892 21.982301723228
8.751600000000000 0.0240049505737 -2.993183538339 0.9997076677171 -80.51192437810 0.9997076677171 -80.51192437810 0.0240063633006 21.983915002568
8.751700000000001 0.0240003100195 -2.997188123763 0.9997077753270 -80.51312456786 0.9997077753270 -80.51312456786 0.0240017246890 21.985538661101
8.751800000000001 0.0239956507310 -3.001205244273 0.9997078833431 -80.51432586253 0.9997078833431 -80.51432586253 0.0239970673550 21.987172766006
8.751900000000001 0.0239909725775 -3.005234994245 0.9997079917686 -80.51552826981 0.9997079917686 -80.51552826981 0.0239923911678 21.988817395047
8.752000000000001 0.0239862754624 -3.009277446887 0.9997081006057 -80.51673179544 0.9997081006057 -80.51673179544 0.0239876960309 21.990472609704
8.752100000000000 0.0239815592805 -3.013332679315 0.9997082098560 -80.51793644565 0.9997082098560 -80.51793644565 0.0239829818391 21.992138477554
8.752200000000000 0.0239768239052 -3.017400783751 0.9997083195225 -80.51914222792 0.9997083195225 -80.51914222792 0.0239782484659 21.993815074969
8.752300000000000 0.0239720692284 -3.021481840038 0.9997084296072 -80.52034914864 0.9997084296072 -80.52034914864 0.0239734958035 21.995502470535
8.752400000000000 0.0239672951239 -3.025575938351 0.9997085401122 -80.52155721528 0.9997085401122 -80.52155721528 0.0239687237257 21.997200742926
8.752500000000001 0.0239625014976 -3.029683153215 0.9997086510403 -80.52276643343 0.9997086510403 -80.52276643343 0.0239639321383 21.998909951560
8.752600000000001 0.0239576882154 -3.033803577732 0.9997087623929 -80.52397681099 0.9997087623929 -80.52397681099 0.0239591209078 22.000630181309
8.752700000000001 0.0239528551637 -3.037937300362 0.9997088741740 -80.52518835473 0.9997088741740 -80.52518835473 0.0239542899199 22.002361500374
8.752800000000001 0.0239480022252 -3.042084404418 0.9997089863845 -80.52640107154 0.9997089863845 -80.52640107154 0.0239494390581 22.004103985371
8.752900000000000 0.0239431292801 -3.046244979950 0.9997090990274 -80.52761496854 0.9997090990274 -80.52761496854 0.0239445682025 22.005857710243
8.753000000000000 0.0239382362094 -3.050419113021 0.9997092121044 -80.52883005277 0.9997092121044 -80.52883005277 0.0239396772343 22.007622751963
8.753100000000000 0.0239333228903 -3.054606896511 0.9997093256187 -80.53004633149 0.9997093256187 -80.53004633149 0.0239347660307 22.009399185474
8.753200000000001 0.0239283892106 -3.058808414335 0.9997094395725 -80.53126381136 0.9997094395725 -80.53126381136 0.0239298344794 22.011187083482
8.753300000000001 0.0239234350241 -3.063023772551 0.9997095539690 -80.53248250101 0.9997095539690 -80.53248250101 0.0239248824344 22.012986534379
8.753400000000001 0.0239184602169 -3.067253054081 0.9997096688092 -80.53370240719 0.9997096688092 -80.53370240719 0.0239199097823 22.014797614213
8.753500000000001 0.0239134646721 -3.071496348725 0.9997097840963 -80.53492353681 0.9997097840963 -80.53492353681 0.0239149164061 22.016620396029
8.753600000000000 0.0239084482573 -3.075753754902 0.9997098998333 -80.53614589773 0.9997098998333 -80.53614589773 0.0239099021731 22.018454962324
8.753700000000000 0.0239034108391 -3.080025369137 0.9997100160222 -80.53736949783 0.9997100160222 -80.53736949783 0.0239048669506 22.020301398253
8.753800000000000 0.0238983523004 -3.084311280016 0.9997101326652 -80.53859434405 0.9997101326652 -80.53859434405 0.0238998106214 22.022159779525
8.753900000000000 0.0238932725029 -3.088611591711 0.9997102497660 -80.53982044457 0.9997102497660 -80.53982044457 0.0238947330471 22.024030190697
8.754000000000001 0.0238881713235 -3.092926393144 0.9997103673257 -80.54104780667 0.9997103673257 -80.54104780667 0.0238896341052 22.025912714260
8.754100000000001 0.0238830486265 -3.097255788196 0.9997104853481 -80.54227643841 0.9997104853481 -80.54227643841 0.0238845136596 22.027807433147
8.754200000000001 0.0238779042805 -3.101599872735 0.9997106038351 -80.54350634754 0.9997106038351 -80.54350634754 0.0238793715794 22.029714433255
8.754300000000001 0.0238727381256 -3.105958763521 0.9997107227900 -80.54473754354 0.9997107227900 -80.54473754354 0.0238742077048 22.031633812285
8.754400000000000 0.0238675500781 -3.110332530231 0.9997108422146 -80.54597003137 0.9997108422146 -80.54597003137 0.0238690219519 22.033565630216
8.754500000000000 0.0238623399583 -3.114721302252 0.9997109621128 -80.54720382167 0.9997109621128 -80.54720382167 0.0238638141413 22.035509995160
8.754600000000000 0.0238571076467 -3.119125169229 0.9997110824862 -80.54843892150 0.9997110824862 -80.54843892150 0.0238585841538 22.037466987833
8.754700000000000 0.0238518530135 -3.123544230754 0.9997112033377 -80.54967533856 0.9997112033377 -80.54967533856 0.0238533318597 22.039436691299
8.754800000000001 0.0238465758983 -3.127978604880 0.9997113246708 -80.55091308234 0.9997113246708 -80.55091308234 0.0238480570984 22.041419205090
8.754900000000001 0.0238412761768 -3.132428386293 0.9997114464876 -80.55215216021 0.9997114464876 -80.55215216021 0.0238427597459 22.043414611742
8.755000000000001 0.0238359536988 -3.136893686026 0.9997115687908 -80.55339258105 0.9997115687908 -80.55339258105 0.0238374396524 22.045423006996
8.755100000000001 0.0238306083309 -3.141374606236 0.9997116915832 -80.55463435277 0.9997116915832 -80.55463435277 0.0238320966844 22.047444477494
8.755200000000000 0.0238252399159 -3.145871263220 0.9997118148679 -80.55587748468 0.9997118148679 -80.55587748468 0.0238267306849 22.049479122700
8.755300000000000 0.0238198483145 -3.150383765166 0.9997119386486 -80.55712198503 0.9997119386486 -80.55712198503 0.0238213415143 22.051527030957
8.755400000000000 0.0238144333747 -3.154912222638 0.9997120629270 -80.55836786282 0.9997120629270 -80.55836786282 0.0238159290213 22.053588302370
8.755500000000001 0.0238089949625 -3.159456739547 0.9997121877061 -80.55961512598 0.9997121877061 -80.55961512598 0.0238104930719 22.055663024534
8.755600000000001 0.0238035329173 -3.164017435962 0.9997123129891 -80.56086378404 0.9997123129891 -80.56086378404 0.0238050335055 22.057751299235
8.755700000000001 0.0237980470905 -3.168594422184 0.9997124387781 -80.56211384577 0.9997124387781 -80.56211384577 0.0237995501741 22.059853224688
8.755800000000001 0.0237925373298 -3.173187817710 0.9997125650778 -80.56336532022 0.9997125650778 -80.56336532022 0.0237940429248 22.061968895559
8.755900000000000 0.0237870034807 -3.177797736352 0.9997126918902 -80.56461821652 0.9997126918902 -80.56461821652 0.0237885116038 22.064098414263
8.756000000000000 0.0237814453960 -3.182424290490 0.9997128192180 -80.56587254341 0.9997128192180 -80.56587254341 0.0237829560639 22.066241877510
8.756100000000000 0.0237758629179 -3.187067600596 0.9997129470647 -80.56712831023 0.9997129470647 -80.56712831023 0.0237773761473 22.068399386385
8.756200000000000 0.0237702558808 -3.191727789827 0.9997130754330 -80.56838552678 0.9997130754330 -80.56838552678 0.0237717716888 22.070571048613
8.756300000000001 0.0237646241326 -3.196404975471 0.9997132043263 -80.56964420207 0.9997132043263 -80.56964420207 0.0237661425364 22.072756963036
8.756400000000001 0.0237589675204 -3.201099274278 0.9997133337474 -80.57090434518 0.9997133337474 -80.57090434518 0.0237604885373 22.074957230858
8.756500000000001 0.0237532858639 -3.205810821972 0.9997134637002 -80.57216596677 0.9997134637002 -80.57216596677 0.0237548095111 22.077171965741
8.756600000000001 0.0237475790248 -3.210539724971 0.9997135941866 -80.57342907503 0.9997135941866 -80.57342907503 0.0237491053203 22.079401263476
8.756700000000000 0.0237418468222 -3.215286122261 0.9997137252113 -80.57469368071 0.9997137252113 -80.57469368071 0.0237433757833 22.081645236899
8.756800000000000 0.0237360890927 -3.220050135041 0.9997138567762 -80.57595979346 0.9997138567762 -80.57595979346 0.0237376207376 22.083903996487
8.756900000000000 0.0237303056778 -3.224831887817 0.9997139888850 -80.57722742268 0.9997139888850 -80.57722742268 0.0237318400246 22.086177645187
8.757000000000000 0.0237244964012 -3.229631514146 0.9997141215414 -80.57849657883 0.9997141215414 -80.57849657883 0.0237260334679 22.088466297665
8.757100000000001 0.0237186610926 -3.234449142345 0.9997142547477 -80.57976727198 0.9997142547477 -80.57976727198 0.0237202008980 22.090770067158
8.757200000000001 0.0237127995868 -3.239284902311 0.9997143885082 -80.58103951192 0.9997143885082 -80.58103951192 0.0237143421493 22.093089060911
8.757300000000001 0.0237069117125 -3.244138923367 0.9997145228253 -80.58231330882 0.9997145228253 -80.58231330882 0.0237084570509 22.095423393993
8.757400000000001 0.0237009972915 -3.249011344017 0.9997146577034 -80.58358867323 0.9997146577034 -80.58358867323 0.0237025454246 22.097773181052
8.757500000000000 0.0236950561510 -3.253902296432 0.9997147931454 -80.58486561539 0.9997147931454 -80.58486561539 0.0236966070979 22.100138537207
8.757600000000000 0.0236890881023 -3.258811922041 0.9997149291542 -80.58614414648 0.9997149291542 -80.58614414648 0.0236906418824 22.102519587476
8.757700000000000 0.0236830929795 -3.263740352075 0.9997150657335 -80.58742427634 0.9997150657335 -80.58742427634 0.0236846496124 22.104916441662
8.757800000000001 0.0236770706004 -3.268687726598 0.9997152028870 -80.58870601576 0.9997152028870 -80.58870601576 0.0236786301058 22.107329220323
8.757900000000001 0.0236710207735 -3.273654194183 0.9997153406192 -80.58998937611 0.9997153406192 -80.58998937611 0.0236725831707 22.109758046874
8.758000000000001 0.0236649433241 -3.278639887632 0.9997154789322 -80.59127436772 0.9997154789322 -80.59127436772 0.0236665086335 22.112203041516
8.758100000000001 0.0236588380649 -3.283644951038 0.9997156178293 -80.59256100169 0.9997156178293 -80.59256100169 0.0236604063068 22.114664328681
8.758200000000000 0.0236527048043 -3.288669534364 0.9997157573153 -80.59384928940 0.9997157573153 -80.59384928940 0.0236542759990 22.117142032880
8.758300000000000 0.0236465433683 -3.293713773003 0.9997158973928 -80.59513924116 0.9997158973928 -80.59513924116 0.0236481175364 22.119636273545
8.758400000000000 0.0236403535503 -3.298777826846 0.9997160380667 -80.59643086923 0.9997160380667 -80.59643086923 0.0236419307122 22.122147183980
8.758500000000000 0.0236341351663 -3.303861836156 0.9997161793392 -80.59772418448 0.9997161793392 -80.59772418448 0.0236357153434 22.124674891382
8.758600000000001 0.0236278880130 -3.308965960010 0.9997163212151 -80.59901919898 0.9997163212151 -80.59901919898 0.0236294712264 22.127219527803
8.758700000000001 0.0236216119093 -3.314090339621 0.9997164636971 -80.60031592348 0.9997164636971 -80.60031592348 0.0236231981805 22.129781218315
8.758800000000001 0.0236153066447 -3.319235139161 0.9997166067903 -80.60161437045 0.9997166067903 -80.60161437045 0.0236168959950 22.132360099658
8.758900000000001 0.0236089720319 -3.324400505124 0.9997167504977 -80.60291455101 0.9997167504977 -80.60291455101 0.0236105644831 22.134956300447
8.759000000000000 0.0236026078551 -3.329586600871 0.9997168948224 -80.60421647792 0.9997168948224 -80.60421647792 0.0236042034296 22.137569965480
8.759100000000000 0.0235962139233 -3.334793580499 0.9997170397693 -80.60552016253 0.9997170397693 -80.60552016253 0.0235978126432 22.140201222203
8.759200000000000 0.0235897900346 -3.340021602044 0.9997171853423 -80.60682561683 0.9997171853423 -80.60682561683 0.0235913919221 22.142850207195
8.759300000000001 0.0235833359691 -3.345270834698 0.9997173315451 -80.60813285383 0.9997173315451 -80.60813285383 0.0235849410469 22.145517067028
8.759400000000001 0.0235768515241 -3.350541438571 0.9997174783819 -80.60944188556 0.9997174783819 -80.60944188556 0.0235784598150 22.148201939032
8.759500000000001 0.0235703364987 -3.355833571907 0.9997176258562 -80.61075272395 0.9997176258562 -80.61075272395 0.0235719480258 22.150904961111
8.759600000000001 0.0235637906642 -3.361147411067 0.9997177739720 -80.61206538254 0.9997177739720 -80.61206538254 0.0235654054509 22.153626285849
8.759700000000000 0.0235572138230 -3.366483113220 0.9997179227330 -80.61337987305 0.9997179227330 -80.61337987305 0.0235588318931 22.156366050158
8.759800000000000 0.0235506057453 -3.371840860890 0.9997180721449 -80.61469620914 0.9997180721449 -80.61469620914 0.0235522271220 22.159124404490
8.759900000000000 0.0235439662245 -3.377220815429 0.9997182222106 -80.61601440305 0.9997182222106 -80.61601440305 0.0235455909320 22.161901493646
8.760000000000000 0.0235372950305 -3.382623156203 0.9997183729341 -80.61733446841 0.9997183729341 -80.61733446841 0.0235389230931 22.164697472879
8.760100000000001 0.0235305919403 -3.388048059217 0.9997185243197 -80.61865641846 0.9997185243197 -80.61865641846 0.0235322233827 22.167512493770
8.760200000000001 0.0235238567320 -3.393495702841 0.9997186763728 -80.61998026639 0.9997186763728 -80.61998026639 0.0235254915784 22.170346705790
8.760300000000001 0.0235170891881 -3.398966256942 0.9997188290959 -80.62130602506 0.9997188290959 -80.62130602506 0.0235187274637 22.173200261739
8.760400000000001 0.0235102890641 -3.404459912639 0.9997189824938 -80.62263370898 0.9997189824938 -80.62263370898 0.0235119307945 22.176073326252
8.760500000000000 0.0235034561396 -3.409976850158 0.9997191365721 -80.62396333127 0.9997191365721 -80.62396333127 0.0235051013496 22.178966048482
8.760600000000000 0.0234965901817 -3.415517249175 0.9997192913332 -80.62529490570 0.9997192913332 -80.62529490570 0.0234982388976 22.181878592400
8.760700000000000 0.0234896909455 -3.421081305803 0.9997194467830 -80.62662844682 0.9997194467830 -80.62662844682 0.0234913431931 22.184811121897
8.760800000000000 0.0234827581969 -3.426669205845 0.9997196029255 -80.62796396852 0.9997196029255 -80.62796396852 0.0234844140024 22.187763799122
8.760900000000001 0.0234757917038 -3.432281136295 0.9997197597654 -80.62930148459 0.9997197597654 -80.62930148459 0.0234774510935 22.190736784173
8.761000000000001 0.0234687912247 -3.437917287663 0.9997199173065 -80.63064100933 0.9997199173065 -80.63064100933 0.0234704542257 22.193730245254
8.761100000000001 0.0234617565050 -3.443577863415 0.9997200755543 -80.63198255787 0.9997200755543 -80.63198255787 0.0234634231440 22.196744354794
8.761200000000001 0.0234546872968 -3.449263058148 0.9997202345122 -80.63332614490 0.9997202345122 -80.63332614490 0.0234563576016 22.199779286458
8.761300000000000 0.0234475833725 -3.454973061091 0.9997203941858 -80.63467178396 0.9997203941858 -80.63467178396 0.0234492573703 22.202835198252
8.761400000000000 0.0234404444497 -3.460708090904 0.9997205545796 -80.63601949179 0.9997205545796 -80.63601949179 0.0234421221685 22.205912282684
8.761500000000000 0.0234332702986 -3.466468339389 0.9997207156992 -80.63736928205 0.9997207156992 -80.63736928205 0.0234349517661 22.209010700025
8.761600000000001 0.0234260606358 -3.472254023669 0.9997208775478 -80.63872117151 0.9997208775478 -80.63872117151 0.0234277458810 22.212130647776
8.761700000000001 0.0234188152368 -3.478065331555 0.9997210401299 -80.64007517355 0.9997210401299 -80.64007517355 0.0234205042885 22.215272286556
8.761800000000001 0.0234115338169 -3.483902489493 0.9997212034515 -80.64143130504 0.9997212034515 -80.64143130504 0.0234132267043 22.218435809373
8.761900000000001 0.0234042161274 -3.489765701616 0.9997213675177 -80.64278958077 0.9997213675177 -80.64278958077 0.0234059128793 22.221621391561
8.762000000000000 0.0233968618945 -3.495655187322 0.9997215323336 -80.64415001699 0.9997215323336 -80.64415001699 0.0233985625404 22.224829223011
8.762100000000000 0.0233894708447 -3.501571162212 0.9997216979024 -80.64551262991 0.9997216979023 -80.64551262991 0.0233911754151 22.228059498438
8.762200000000000 0.0233820426967 -3.507513857154 0.9997218642313 -80.64687743626 0.9997218642313 -80.64687743626 0.0233837512214 22.231312408908
8.762300000000000 0.0233745771909 -3.513483480671 0.9997220313236 -80.64824445143 0.9997220313236 -80.64824445143 0.0233762897009 22.234588142613
8.762400000000001 0.0233670740531 -3.519480256950 0.9997221991849 -80.64961369172 0.9997221991849 -80.64961369172 0.0233687905793 22.237886891687
8.762500000000001 0.0233595329982 -3.525504418097 0.9997223678211 -80.65098517406 0.9997223678211 -80.65098517406 0.0233612535714 22.241208854357
8.762600000000001 0.0233519537337 -3.531556197793 0.9997225372367 -80.65235891581 0.9997225372367 -80.65235891581 0.0233536783858 22.244554236900
8.762700000000001 0.0233443359864 -3.537635822124 0.9997227074375 -80.65373493320 0.9997227074375 -80.65373493320 0.0233460647490 22.247923232972
8.762800000000000 0.0233366794602 -3.543743529132 0.9997228784281 -80.65511324382 0.9997228784281 -80.65511324382 0.0233384123657 22.251316052019
8.762900000000000 0.0233289838731 -3.549879549236 0.9997230502134 -80.65649386439 0.9997230502134 -80.65649386439 0.0233307209543 22.254732896330
8.763000000000000 0.0233212489262 -3.556044128906 0.9997232228002 -80.65787681270 0.9997232228002 -80.65787681270 0.0233229902158 22.258173974141
8.763100000000000 0.0233134743171 -3.562237513805 0.9997233961936 -80.65926210671 0.9997233961936 -80.65926210671 0.0233152198480 22.261639499916
8.763200000000001 0.0233056597435 -3.568459948094 0.9997235703982 -80.66064976434 0.9997235703982 -80.66064976434 0.0233074095498 22.265129690695
8.763300000000001 0.0232978049155 -3.574711674017 0.9997237454200 -80.66203980285 0.9997237454200 -80.66203980285 0.0232995590311 22.268644753394
8.763400000000001 0.0232899095202 -3.580992945500 0.9997239212643 -80.66343224080 0.9997239212643 -80.66343224080 0.0232916679795 22.272184911646
8.763500000000001 0.0232819732438 -3.587304021279 0.9997240979373 -80.66482709685 0.9997240979373 -80.66482709685 0.0232837360815 22.275750387155
8.763600000000000 0.0232739957701 -3.593645159698 0.9997242754444 -80.66622438978 0.9997242754444 -80.66622438978 0.0232757630213 22.279341406809
8.763700000000000 0.0232659767935 -3.600016613642 0.9997244537909 -80.66762413775 0.9997244537909 -80.66762413775 0.0232677484939 22.282958191996
8.763800000000000 0.0232579159975 -3.606418648408 0.9997246329839 -80.66902635957 0.9997246329839 -80.66902635957 0.0232596921824 22.286600967079
8.763900000000001 0.0232498130421 -3.612851538668 0.9997248130286 -80.67043107544 0.9997248130286 -80.67043107544 0.0232515937478 22.290269975927
8.764000000000001 0.0232416676229 -3.619315538440 0.9997249939298 -80.67183830344 0.9997249939298 -80.67183830344 0.0232434528863 22.293965443000
8.764100000000001 0.0232334794009 -3.625810927789 0.9997251756940 -80.67324806372 0.9997251756940 -80.67324806372 0.0232352692592 22.297687610091
8.764200000000001 0.0232252480339 -3.632337989571 0.9997253583279 -80.67466037662 0.9997253583279 -80.67466037662 0.0232270425244 22.301436721814
8.764300000000000 0.0232169731967 -3.638896994785 0.9997255418368 -80.67607526146 0.9997255418368 -80.67607526146 0.0232187723575 22.305213016277
8.764400000000000 0.0232086545516 -3.645488224830 0.9997257262270 -80.67749273832 0.9997257262270 -80.67749273832 0.0232104584209 22.309016738477
8.764500000000000 0.0232002917473 -3.652111971714 0.9997259115053 -80.67891282808 0.9997259115053 -80.67891282808 0.0232021003637 22.312848140879
8.764600000000000 0.0231918844439 -3.658768520362 0.9997260976777 -80.68033555095 0.9997260976777 -80.68033555095 0.0231936978464 22.316707471699
8.764700000000001 0.0231834323004 -3.665458154637 0.9997262847495 -80.68176092721 0.9997262847495 -80.68176092721 0.0231852505287 22.320594983325
8.764800000000001 0.0231749349430 -3.672181183842 0.9997264727276 -80.68318897904 0.9997264727276 -80.68318897904 0.0231767580373 22.324510944228
8.764900000000001 0.0231663920217 -3.678937903856 0.9997266616187 -80.68461972728 0.9997266616187 -80.68461972728 0.0231682200225 22.328455610296
8.765000000000001 0.0231578031729 -3.685728617900 0.9997268514289 -80.68605319355 0.9997268514289 -80.68605319355 0.0231596361211 22.332429248692
8.765100000000000 0.0231491680511 -3.692553620177 0.9997270421644 -80.68748939839 0.9997270421644 -80.68748939839 0.0231510059881 22.336432115954
8.765200000000000 0.0231404862651 -3.699413236495 0.9997272338328 -80.68892836506 0.9997272338328 -80.68892836506 0.0231423292327 22.340464494235
8.765300000000000 0.0231317574428 -3.706307779042 0.9997274264401 -80.69037011568 0.9997274264401 -80.69037011568 0.0231336054834 22.344526658818
8.765400000000001 0.0231229812008 -3.713237566356 0.9997276199917 -80.69181467303 0.9997276199917 -80.69181467303 0.0231248343579 22.348618894113
8.765500000000001 0.0231141571946 -3.720202908037 0.9997278144982 -80.69326205768 0.9997278144982 -80.69326205768 0.0231160155101 22.352741451368
8.765600000000001 0.0231052849944 -3.727204144551 0.9997280099617 -80.69471229508 0.9997280099617 -80.69471229508 0.0231071485134 22.356894652357
8.765700000000001 0.0230963642361 -3.734241596992 0.9997282063917 -80.69616540697 0.9997282063917 -80.69616540697 0.0230982330026 22.361078765032
8.765800000000000 0.0230873945168 -3.741315607293 0.9997284037960 -80.69762141730 0.9997284037960 -80.69762141730 0.0230892685750 22.365294084855
8.765900000000000 0.0230783754450 -3.748426502503 0.9997286021790 -80.69908034932 0.9997286021790 -80.69908034932 0.0230802548410 22.369540909931
8.766000000000000 0.0230693066160 -3.755574630789 0.9997288015494 -80.70054222714 0.9997288015494 -80.70054222714 0.0230711913955 22.373819537430
8.766100000000000 0.0230601876173 -3.762760342055 0.9997290019145 -80.70200707530 0.9997290019145 -80.70200707530 0.0230620778265 22.378130274394
8.766200000000001 0.0230510180531 -3.769983973911 0.9997292032798 -80.70347491733 0.9997292032798 -80.70347491733 0.0230529137395 22.382473422303
8.766300000000001 0.0230417974950 -3.777245892974 0.9997294056541 -80.70494577874 0.9997294056541 -80.70494577874 0.0230436987060 22.386849296832
8.766400000000001 0.0230325255114 -3.784546468356 0.9997296090459 -80.70641968521 0.9997296090459 -80.70641968521 0.0230344322946 22.391258217552
8.766500000000001 0.0230232017142 -3.791886035375 0.9997298134599 -80.70789665982 0.9997298134599 -80.70789665982 0.0230251141187 22.395700487787
8.766600000000000 0.0230138256447 -3.799264983866 0.9997300189050 -80.70937672987 0.9997300189050 -80.70937672987 0.0230157437197 22.400176445179
8.766700000000000 0.0230043968775 -3.806683682835 0.9997302253891 -80.71085992070 0.9997302253891 -80.71085992070 0.0230063206726 22.404686411286
8.766800000000000 0.0229949149663 -3.814142515154 0.9997304329201 -80.71234625885 0.9997304329201 -80.71234625885 0.0229968445317 22.409230721726
8.766900000000000 0.0229853794958 -3.821641841461 0.9997306415036 -80.71383576905 0.9997306415036 -80.71383576905 0.0229873148829 22.413809700068
8.767000000000001 0.0229757899685 -3.829182081656 0.9997308511486 -80.71532848089 0.9997308511486 -80.71532848089 0.0229777312292 22.418423713522
8.767100000000001 0.0229661459587 -3.836763614619 0.9997310618642 -80.71682441973 0.9997310618642 -80.71682441973 0.0229680931450 22.423073087238
8.767200000000001 0.0229564470254 -3.844386824759 0.9997312736572 -80.71832361186 0.9997312736572 -80.71832361186 0.0229584001898 22.427758162320
8.767300000000001 0.0229466926804 -3.852052128014 0.9997314865350 -80.71982608630 0.9997314865350 -80.71982608630 0.0229486518767 22.432479308665
8.767400000000000 0.0229368824557 -3.859759936012 0.9997317005076 -80.72133187093 0.9997317005076 -80.72133187093 0.0229388477377 22.437236880329
8.767500000000000 0.0229270158869 -3.867510652367 0.9997319155815 -80.72284099340 0.9997319155815 -80.72284099340 0.0229289873095 22.442031237887
8.767600000000000 0.0229170924820 -3.875304703052 0.9997321317651 -80.72435348301 0.9997321317651 -80.72435348301 0.0229190701010 22.446862757061
8.767700000000001 0.0229071117722 -3.883142502495 0.9997323490668 -80.72586936767 0.9997323490668 -80.72586936767 0.0229090956437 22.451731800792
8.767800000000001 0.0228970732396 -3.891024498014 0.9997325674954 -80.72738867823 0.9997325674954 -80.72738867823 0.0228990634206 22.456638762650
8.767900000000001 0.0228869764090 -3.898951112436 0.9997327870596 -80.72891144300 0.9997327870596 -80.72891144300 0.0228889729568 22.461584012696
8.768000000000001 0.0228768207748 -3.906922789827 0.9997330077682 -80.73043769211 0.9997330077682 -80.73043769211 0.0228788237475 22.466567940675
8.768100000000000 0.0228666058295 -3.914939975089 0.9997332296292 -80.73196745577 0.9997332296292 -80.73196745577 0.0228686152860 22.471590941697
8.768200000000000 0.0228563310494 -3.923003125206 0.9997334526507 -80.73350076517 0.9997334526507 -80.73350076517 0.0228583470499 22.476653422449
8.768300000000000 0.0228459959345 -3.931112690650 0.9997336768429 -80.73503765012 0.9997336768429 -80.73503765012 0.0228480185392 22.481755772235
8.768400000000000 0.0228355999439 -3.939269142991 0.9997339022135 -80.73657814284 0.9997339022135 -80.73657814284 0.0228376292142 22.486898412899
8.768500000000001 0.0228251425469 -3.947472954023 0.9997341287721 -80.73812227495 0.9997341287721 -80.73812227495 0.0228271785448 22.492081758082
8.768600000000001 0.0228146232041 -3.955724605620 0.9997343565291 -80.73967007861 0.9997343565291 -80.73967007861 0.0228166659919 22.497306227049
8.768700000000001 0.0228040413976 -3.964024559156 0.9997345854913 -80.74122158467 0.9997345854913 -80.74122158467 0.0228060910393 22.502572236345
8.768800000000001 0.0227933965147 -3.972373348702 0.9997348156698 -80.74277682963 0.9997348156698 -80.74277682963 0.0227954530746 22.507880252468
8.768900000000000 0.0227826880443 -3.980771441284 0.9997350470734 -80.74433584397 0.9997350470734 -80.74433584397 0.0227847515876 22.513230687879
8.769000000000000 0.0227719154271 -3.989219337227 0.9997352797112 -80.74589866105 0.9997352797112 -80.74589866105 0.0227739860197 22.518623986009
8.769100000000000 0.0227610780865 -3.997717550742 0.9997355135926 -80.74746531521 0.9997355135926 -80.74746531521 0.0227631557956 22.524060602356
8.769200000000000 0.0227501754334 -4.006266611460 0.9997357487287 -80.74903584160 0.9997357487287 -80.74903584160 0.0227522603263 22.529540998342
8.769300000000001 0.0227392068637 -4.014867054110 0.9997359851284 -80.75061027620 0.9997359851284 -80.75061027620 0.0227412990091 22.535065653138
8.769400000000001 0.0227281718318 -4.023519381590 0.9997362228009 -80.75218865158 0.9997362228009 -80.75218865158 0.0227302712994 22.540635010553
8.769500000000001 0.0227170697241 -4.032224144496 0.9997364617567 -80.75377100431 0.9997364617567 -80.75377100431 0.0227191765842 22.546249556627
8.769600000000001 0.0227058999088 -4.040981908545 0.9997367020066 -80.75535737206 0.9997367020066 -80.75535737206 0.0227080142327 22.551909790202
8.769700000000000 0.0226946618118 -4.049793200876 0.9997369435593 -80.75694778910 0.9997369435593 -80.75694778910 0.0226967836719 22.557616182213
8.769800000000000 0.0226833547938 -4.058658601220 0.9997371864270 -80.75854229354 0.9997371864270 -80.75854229354 0.0226854842628 22.563369238386
8.769900000000000 0.0226719782124 -4.067578684472 0.9997374306181 -80.76014092369 0.9997374306181 -80.76014092369 0.0226741153650 22.569169477778
8.770000000000001 0.0226605314610 -4.076554013529 0.9997376761438 -80.76174371576 0.9997376761438 -80.76174371576 0.0226626763722 22.575017393817
8.770100000000001 0.0226490138702 -4.085585196595 0.9997379230165 -80.76335070968 0.9997379230165 -80.76335070968 0.0226511666156 22.580913518815