! Sonnet Data File
! From: emgraph Version : 16.52
! From Emgraph Data: 171117_Xmon_fullysym_trail
! Data File Written: 11/21/2017 19:30:38
!< HDATE 11/21/2017 17:20:33
!< MDATE 11/21/2017 17:20:33
!< PARAMS
!< Lj = 11.0
!< Gap = 6.0
!< Pwid = 2000.0
!< Width = 10.0
!< END PARAMS
# GHZ S MA R 50.90000
8.660000000000000 0.0030763996305 -3.674023282019 0.9999910676913 -79.43625485943 0.9999910676974 -79.43625485944 0.0030779963498 24.918534536397
!< P1 F=8.66 Eeff=(6.44844023 -2.9799e-5) Z0=(50.9085963 1.17006e-4) R=0.0 C=0.0 
!< P2 F=8.66 Eeff=(6.44844012 -2.9799e-5) Z0=(50.9086403 1.17006e-4) R=0.0 C=0.0 
8.660050000000000 0.0030737817362 -3.686820894022 0.9999910725003 -79.43686826670 0.9999910725003 -79.43686826670 0.0030753813268 24.930312397459
8.660100000000000 0.0030711554364 -3.699678220405 0.9999910772562 -79.43748217758 0.9999910772562 -79.43748217758 0.0030727579413 24.942152059534
8.660150000000000 0.0030685206950 -3.712596638002 0.9999910820150 -79.43809659497 0.9999910820150 -79.43809659497 0.0030701261314 24.954053019366
8.660200000000000 0.0030658774572 -3.725576626169 0.9999910867745 -79.43871152217 0.9999910867745 -79.43871152217 0.0030674858436 24.966015841986
8.660250000000001 0.0030632256932 -3.738618618665 0.9999910915358 -79.43932696105 0.9999910915358 -79.43932696105 0.0030648370476 24.978040920266
8.660300000000001 0.0030605653565 -3.751723107048 0.9999910962990 -79.43994291448 0.9999910962990 -79.43994291448 0.0030621796971 24.990128750082
8.660350000000001 0.0030578963845 -3.764890637427 0.9999911010627 -79.44055938624 0.9999911010627 -79.44055938624 0.0030595137300 25.002279928040
8.660400000000001 0.0030552187505 -3.778121642871 0.9999911058284 -79.44117637802 0.9999911058284 -79.44117637802 0.0030568391194 25.014494838604
8.660450000000001 0.0030525324035 -3.791416636604 0.9999911105954 -79.44179389294 0.9999911105954 -79.44179389294 0.0030541558146 25.026774018516
8.660500000000001 0.0030498372958 -3.804776136539 0.9999911153642 -79.44241193394 0.9999911153642 -79.44241193394 0.0030514637677 25.039117979857
8.660550000000001 0.0030471333753 -3.818200664535 0.9999911201338 -79.44303050418 0.9999911201338 -79.44303050418 0.0030487629272 25.051527275305
8.660600000000001 0.0030444206071 -3.831690680052 0.9999911249044 -79.44364960584 0.9999911249044 -79.44364960584 0.0030460532585 25.064002367191
8.660650000000000 0.0030416989348 -3.845246760095 0.9999911296766 -79.44426924237 0.9999911296766 -79.44426924237 0.0030433347050 25.076543813190
8.660700000000000 0.0030389683185 -3.858869377601 0.9999911344494 -79.44488941623 0.9999911344494 -79.44488941623 0.0030406072272 25.089152124650
8.660750000000000 0.0030362287047 -3.872559093800 0.9999911392229 -79.44551013071 0.9999911392229 -79.44551013071 0.0030378707718 25.101827862275
8.660800000000000 0.0030334800382 -3.886316491869 0.9999911439978 -79.44613138919 0.9999911439978 -79.44613138919 0.0030351252835 25.114571590665
8.660850000000000 0.0030307222911 -3.900142006106 0.9999911487734 -79.44675319342 0.9999911487734 -79.44675319342 0.0030323707347 25.127383770176
8.660900000000000 0.0030279553948 -3.914036281277 0.9999911535498 -79.44737554758 0.9999911535498 -79.44737554758 0.0030296070570 25.140265046700
8.660950000000000 0.0030251793101 -3.927999823098 0.9999911583269 -79.44799845411 0.9999911583269 -79.44799845411 0.0030268342115 25.153215933962
8.661000000000001 0.0030223939854 -3.942033199038 0.9999911631045 -79.44862191618 0.9999911631045 -79.44862191618 0.0030240521467 25.166237011679
8.661050000000001 0.0030195993716 -3.956136966369 0.9999911678823 -79.44924593680 0.9999911678823 -79.44924593680 0.0030212608139 25.179328851607
8.661100000000001 0.0030167954129 -3.970311732064 0.9999911726606 -79.44987051942 0.9999911726606 -79.44987051942 0.0030184601572 25.192492054308
8.661150000000001 0.0030139820680 -3.984558034120 0.9999911774396 -79.45049566659 0.9999911774396 -79.45049566659 0.0030156501354 25.205727155809
8.661200000000001 0.0030111592754 -3.998876514986 0.9999911822194 -79.45112138209 0.9999911822194 -79.45112138209 0.0030128306870 25.219034793076
8.661250000000001 0.0030083269882 -4.013267713163 0.9999911869985 -79.45174766879 0.9999911869985 -79.45174766879 0.0030100017663 25.232415570217
8.661300000000001 0.0030054851663 -4.027732191103 0.9999911917778 -79.45237452922 0.9999911917779 -79.45237452922 0.0030071633326 25.245870017323
8.661350000000001 0.0030026337302 -4.042270698138 0.9999911965580 -79.45300196821 0.9999911965580 -79.45300196821 0.0030043153064 25.259398869481
8.661400000000000 0.0029997726532 -4.056883694418 0.9999912013374 -79.45362998747 0.9999912013374 -79.45362998747 0.0030014576618 25.273002641944
8.661450000000000 0.0029969018750 -4.071571839378 0.9999912061165 -79.45425859068 0.9999912061165 -79.45425859068 0.0029985903387 25.286681990917
8.661500000000000 0.0029940213293 -4.086335832878 0.9999912108957 -79.45488778193 0.9999912108957 -79.45488778193 0.0029957132707 25.300437602479
8.661550000000000 0.0029911309845 -4.101176201486 0.9999912156749 -79.45551756323 0.9999912156749 -79.45551756323 0.0029928264261 25.314270007712
8.661600000000000 0.0029882307693 -4.116093656367 0.9999912204536 -79.45614793890 0.9999912204536 -79.45614793890 0.0029899297345 25.328179945722
8.661650000000000 0.0029853206349 -4.131088808961 0.9999912252313 -79.45677891200 0.9999912252313 -79.45677891200 0.0029870231471 25.342168051015
8.661700000000000 0.0029824005248 -4.146162332777 0.9999912300085 -79.45741048602 0.9999912300085 -79.45741048602 0.0029841066076 25.356234982497
8.661750000000001 0.0029794703859 -4.161314891443 0.9999912347859 -79.45804266424 0.9999912347859 -79.45804266424 0.0029811800627 25.370381384926
8.661800000000001 0.0029765301697 -4.176547089210 0.9999912395618 -79.45867544966 0.9999912395618 -79.45867544966 0.0029782434647 25.384607925181
8.661850000000001 0.0029735797995 -4.191859713110 0.9999912443367 -79.45930884699 0.9999912443367 -79.45930884699 0.0029752967371 25.398915381728
8.661900000000001 0.0029706192330 -4.207253399074 0.9999912491116 -79.45994285890 0.9999912491116 -79.45994285890 0.0029723398371 25.413304356273
8.661950000000001 0.0029676484197 -4.222728767860 0.9999912538845 -79.46057748848 0.9999912538845 -79.46057748848 0.0029693727155 25.427775548666
8.662000000000001 0.0029646672810 -4.238286651970 0.9999912586568 -79.46121274059 0.9999912586568 -79.46121274059 0.0029663952931 25.442329751122
8.662050000000001 0.0029616757803 -4.253927635539 0.9999912634273 -79.46184861752 0.9999912634273 -79.46184861752 0.0029634075341 25.456967588534
8.662100000000001 0.0029586738518 -4.269652491701 0.9999912681970 -79.46248512335 0.9999912681970 -79.46248512335 0.0029604093724 25.471689805001
8.662150000000000 0.0029556614298 -4.285461968871 0.9999912729654 -79.46312226212 0.9999912729654 -79.46312226212 0.0029574007429 25.486497178537
8.662200000000000 0.0029526384654 -4.301356732741 0.9999912777315 -79.46376003687 0.9999912777315 -79.46376003687 0.0029543815972 25.501390412599
8.662250000000000 0.0029496048922 -4.317337572579 0.9999912824959 -79.46439845172 0.9999912824959 -79.46439845172 0.0029513518688 25.516370279183
8.662300000000000 0.0029465606452 -4.333405268793 0.9999912872589 -79.46503751069 0.9999912872589 -79.46503751069 0.0029483114928 25.531437556938
8.662350000000000 0.0029435056815 -4.349560500712 0.9999912920209 -79.46567721649 0.9999912920209 -79.46567721649 0.0029452604264 25.546592916928
8.662400000000000 0.0029404399255 -4.365804062971 0.9999912967793 -79.46631757374 0.9999912967793 -79.46631757374 0.0029421985952 25.561837249953
8.662450000000000 0.0029373633093 -4.382136814932 0.9999913015367 -79.46695858668 0.9999913015367 -79.46695858668 0.0029391259306 25.577171332181
8.662500000000001 0.0029342757945 -4.398559381235 0.9999913062908 -79.46760025772 0.9999913062908 -79.46760025772 0.0029360423952 25.592595874238
8.662550000000001 0.0029311772993 -4.415072706624 0.9999913110442 -79.46824259192 0.9999913110442 -79.46824259192 0.0029329479064 25.608111736514
8.662600000000001 0.0029280677599 -4.431677539297 0.9999913157936 -79.46888559321 0.9999913157936 -79.46888559321 0.0029298424022 25.623719790704
8.662650000000001 0.0029249471348 -4.448374615790 0.9999913205407 -79.46952926426 0.9999913205407 -79.46952926426 0.0029267258403 25.639420719535
8.662700000000001 0.0029218153289 -4.465164928065 0.9999913252858 -79.47017361088 0.9999913252858 -79.47017361088 0.0029235981258 25.655215510683
8.662750000000001 0.0029186722997 -4.482049175754 0.9999913300277 -79.47081863578 0.9999913300277 -79.47081863578 0.0029204592170 25.671104914619
8.662800000000001 0.0029155179762 -4.499028234126 0.9999913347663 -79.47146434334 0.9999913347663 -79.47146434334 0.0029173090432 25.687089817948
8.662850000000001 0.0029123522903 -4.516102987742 0.9999913395022 -79.47211073782 0.9999913395022 -79.47211073782 0.0029141475361 25.703171084609
8.662900000000000 0.0029091751738 -4.533274301729 0.9999913442349 -79.47275782345 0.9999913442349 -79.47275782345 0.0029109746281 25.719349612027
8.662950000000000 0.0029059865763 -4.550542949030 0.9999913489634 -79.47340560339 0.9999913489634 -79.47340560339 0.0029077902697 25.735626218841
8.663000000000000 0.0029027864126 -4.567909960314 0.9999913536898 -79.47405408293 0.9999913536898 -79.47405408293 0.0029045943745 25.752001853740
8.663050000000000 0.0028995746250 -4.585376123630 0.9999913584114 -79.47470326567 0.9999913584114 -79.47470326567 0.0029013868867 25.768477424392
8.663100000000000 0.0028963511350 -4.602942439395 0.9999913631299 -79.47535315650 0.9999913631299 -79.47535315650 0.0028981677270 25.785053871698
8.663150000000000 0.0028931158871 -4.620609744458 0.9999913678445 -79.47600375889 0.9999913678445 -79.47600375889 0.0028949368406 25.801732069386
8.663200000000000 0.0028898688037 -4.638379005586 0.9999913725547 -79.47665507767 0.9999913725547 -79.47665507767 0.0028916941505 25.818513009415
8.663250000000000 0.0028866098149 -4.656251173812 0.9999913772608 -79.47730711720 0.9999913772608 -79.47730711720 0.0028884395868 25.835397642609
8.663300000000001 0.0028833388562 -4.674227166343 0.9999913819623 -79.47795988152 0.9999913819623 -79.47795988152 0.0028851730854 25.852386908159
8.663350000000001 0.0028800558488 -4.692308012139 0.9999913866603 -79.47861337554 0.9999913866603 -79.47861337554 0.0028818945676 25.869481807609
8.663400000000001 0.0028767607319 -4.710494601399 0.9999913913529 -79.47926760308 0.9999913913529 -79.47926760308 0.0028786039733 25.886683303506
8.663450000000001 0.0028734534299 -4.728787954223 0.9999913960408 -79.47992256886 0.9999913960408 -79.47992256886 0.0028753012271 25.903992408433
8.663500000000001 0.0028701338615 -4.747189116577 0.9999914007235 -79.48057827792 0.9999914007235 -79.48057827792 0.0028719862483 25.921410185299
8.663550000000001 0.0028668019688 -4.765699039568 0.9999914054018 -79.48123473396 0.9999914054018 -79.48123473396 0.0028686589786 25.938937567438
8.663600000000001 0.0028634576646 -4.784318787007 0.9999914100739 -79.48189194236 0.9999914100739 -79.48189194236 0.0028653193322 25.956575700382
8.663650000000001 0.0028601008782 -4.803049417787 0.9999914147413 -79.48254990758 0.9999914147413 -79.48254990758 0.0028619672378 25.974325585957
8.663700000000000 0.0028567315341 -4.821891957019 0.9999914194024 -79.48320863434 0.9999914194024 -79.48320863434 0.0028586026210 25.992188324884
8.663750000000000 0.0028533495663 -4.840847444584 0.9999914240583 -79.48386812680 0.9999914240583 -79.48386812680 0.0028552254157 26.010164924986
8.663800000000000 0.0028499548899 -4.859917002153 0.9999914287084 -79.48452839027 0.9999914287084 -79.48452839026 0.0028518355373 26.028256537867
8.663850000000000 0.0028465474293 -4.879101709352 0.9999914333521 -79.48518942947 0.9999914333521 -79.48518942947 0.0028484329110 26.046464274419
8.663900000000000 0.0028431271034 -4.898402696179 0.9999914379893 -79.48585124948 0.9999914379893 -79.48585124948 0.0028450174559 26.064789278717
8.663950000000000 0.0028396938501 -4.917821006844 0.9999914426203 -79.48651385427 0.9999914426203 -79.48651385427 0.0028415891103 26.083232596921
8.664000000000000 0.0028362475752 -4.937357865246 0.9999914472449 -79.48717724969 0.9999914472449 -79.48717724969 0.0028381477801 26.101795467083
8.664050000000001 0.0028327881946 -4.957014446527 0.9999914518627 -79.48784144100 0.9999914518627 -79.48784144100 0.0028346933819 26.120479088707
8.664100000000001 0.0028293156396 -4.976791853133 0.9999914564734 -79.48850643256 0.9999914564734 -79.48850643256 0.0028312258475 26.139284587484
8.664150000000001 0.0028258298307 -4.996691252891 0.9999914610764 -79.48917222936 0.9999914610764 -79.48917222936 0.0028277450979 26.158213166637
8.664200000000001 0.0028223306928 -5.016713811888 0.9999914656716 -79.48983883615 0.9999914656716 -79.48983883615 0.0028242510584 26.177266004774
8.664250000000001 0.0028188181244 -5.036860885207 0.9999914702603 -79.49050625927 0.9999914702603 -79.49050625927 0.0028207436272 26.196444416125
8.664300000000001 0.0028152920563 -5.057133602838 0.9999914748411 -79.49117450310 0.9999914748411 -79.49117450310 0.0028172227360 26.215749597691
8.664350000000001 0.0028117524033 -5.077533232703 0.9999914794143 -79.49184357302 0.9999914794143 -79.49184357302 0.0028136882999 26.235182815971
8.664400000000001 0.0028081990836 -5.098061000460 0.9999914839785 -79.49251347415 0.9999914839785 -79.49251347415 0.0028101402383 26.254745361439
8.664450000000000 0.0028046320027 -5.118718272785 0.9999914885350 -79.49318421246 0.9999914885350 -79.49318421246 0.0028065784561 26.274438564099
8.664500000000000 0.0028010510882 -5.139506239528 0.9999914930819 -79.49385579252 0.9999914930819 -79.49385579252 0.0028030028824 26.294263695221
8.664550000000000 0.0027974562479 -5.160426291349 0.9999914976211 -79.49452822016 0.9999914976211 -79.49452822016 0.0027994134243 26.314222090730
8.664600000000000 0.0027938473977 -5.181479694675 0.9999915021498 -79.49520150066 0.9999915021498 -79.49520150066 0.0027958099995 26.334315130540
8.664650000000000 0.0027902244591 -5.202667808696 0.9999915066706 -79.49587563906 0.9999915066706 -79.49587563906 0.0027921925284 26.354544083442
8.664700000000000 0.0027865873154 -5.223992131321 0.9999915111819 -79.49655064260 0.9999915111819 -79.49655064260 0.0027885608958 26.374910528932
8.664750000000000 0.0027829359097 -5.245453862746 0.9999915156832 -79.49722651499 0.9999915156832 -79.49722651499 0.0027849150452 26.395415697122
8.664800000000001 0.0027792701394 -5.267054489016 0.9999915201746 -79.49790326269 0.9999915201746 -79.49790326269 0.0027812548744 26.416061083743
8.664850000000001 0.0027755899034 -5.288795488402 0.9999915246554 -79.49858089204 0.9999915246554 -79.49858089204 0.0027775802830 26.436848205845
8.664900000000001 0.0027718951300 -5.310678221003 0.9999915291265 -79.49925940768 0.9999915291265 -79.49925940768 0.0027738911991 26.457778396281
8.664950000000001 0.0027681857076 -5.332704234401 0.9999915335865 -79.49993881657 0.9999915335865 -79.49993881657 0.0027701875125 26.478853281056
8.665000000000001 0.0027644615627 -5.354874902625 0.9999915380350 -79.50061912345 0.9999915380350 -79.50061912345 0.0027664691502 26.500074257714
8.665050000000001 0.0027607225989 -5.377191792124 0.9999915424738 -79.50130033446 0.9999915424738 -79.50130033446 0.0027627360151 26.521442837528
8.665100000000001 0.0027569687119 -5.399656445648 0.9999915469007 -79.50198245614 0.9999915469007 -79.50198245614 0.0027589880047 26.542960662458
8.665150000000001 0.0027531998116 -5.422270385582 0.9999915513156 -79.50266549423 0.9999915513156 -79.50266549423 0.0027552250292 26.564629276658
8.665200000000000 0.0027494158018 -5.445035201392 0.9999915557190 -79.50334945486 0.9999915557190 -79.50334945486 0.0027514469927 26.586450259604
8.665250000000000 0.0027456165843 -5.467952485194 0.9999915601103 -79.50403434426 0.9999915601103 -79.50403434426 0.0027476537975 26.608425246792
8.665300000000000 0.0027418020668 -5.491023802630 0.9999915644883 -79.50472016831 0.9999915644883 -79.50472016831 0.0027438453526 26.630555864191
8.665350000000000 0.0027379721484 -5.514250856390 0.9999915688550 -79.50540693345 0.9999915688550 -79.50540693345 0.0027400215563 26.652843746201
8.665400000000000 0.0027341267347 -5.537635227636 0.9999915732079 -79.50609464566 0.9999915732079 -79.50609464566 0.0027361823161 26.675290596620
8.665450000000000 0.0027302657153 -5.561178700549 0.9999915775484 -79.50678331198 0.9999915775484 -79.50678331198 0.0027323275213 26.697898155140
8.665500000000000 0.0027263889962 -5.584882916247 0.9999915818750 -79.50747293840 0.9999915818750 -79.50747293840 0.0027284570791 26.720668142923
8.665550000000001 0.0027224964783 -5.608749589421 0.9999915861872 -79.50816353125 0.9999915861872 -79.50816353125 0.0027245708911 26.743602306287
8.665600000000001 0.0027185880538 -5.632780536393 0.9999915904860 -79.50885509740 0.9999915904860 -79.50885509740 0.0027206688496 26.766702439548
8.665650000000001 0.0027146636239 -5.656977492398 0.9999915947702 -79.50954764319 0.9999915947702 -79.50954764319 0.0027167508567 26.789970346807
8.665700000000001 0.0027107230737 -5.681342354002 0.9999915990405 -79.51024117591 0.9999915990405 -79.51024117591 0.0027128167978 26.813407910386
8.665750000000001 0.0027067663193 -5.705876778079 0.9999916032942 -79.51093570098 0.9999916032942 -79.51093570098 0.0027088665908 26.837016909131
8.665800000000001 0.0027027932402 -5.730582760425 0.9999916075333 -79.51163122609 0.9999916075333 -79.51163122609 0.0027049001146 26.860799285631
8.665850000000001 0.0026988037270 -5.755462211402 0.9999916117576 -79.51232775824 0.9999916117576 -79.51232775824 0.0027009172606 26.884756969632
8.665900000000001 0.0026947976834 -5.780516939977 0.9999916159651 -79.51302530361 0.9999916159651 -79.51302530361 0.0026969179339 26.908891872398
8.665950000000000 0.0026907749799 -5.805749045378 0.9999916201567 -79.51372387045 0.9999916201567 -79.51372387045 0.0026929020051 26.933206075934
8.666000000000000 0.0026867355263 -5.831160363807 0.9999916243311 -79.51442346460 0.9999916243311 -79.51442346460 0.0026888693854 26.957701483629
8.666050000000000 0.0026826792132 -5.856752911168 0.9999916284890 -79.51512409312 0.9999916284890 -79.51512409312 0.0026848199652 26.982380110003
8.666100000000000 0.0026786059091 -5.882528862253 0.9999916326308 -79.51582576437 0.9999916326308 -79.51582576437 0.0026807536137 27.007244127813
8.666150000000000 0.0026745155254 -5.908490080121 0.9999916367537 -79.51652848412 0.9999916367537 -79.51652848412 0.0026766702441 27.032295534961
8.666200000000000 0.0026704079261 -5.934638831990 0.9999916408589 -79.51723226104 0.9999916408589 -79.51723226104 0.0026725697205 27.057536574253
8.666250000000000 0.0026662830207 -5.960977094863 0.9999916449459 -79.51793710107 0.9999916449459 -79.51793710107 0.0026684519530 27.082969258164
8.666300000000000 0.0026621406732 -5.987507168252 0.9999916490149 -79.51864301288 0.9999916490149 -79.51864301288 0.0026643168064 27.108595900184
8.666350000000001 0.0026579807698 -6.014231183474 0.9999916530637 -79.51935000379 0.9999916530637 -79.51935000379 0.0026601641685 27.134418751393
8.666400000000001 0.0026538032090 -6.041151320143 0.9999916570941 -79.52005808047 0.9999916570941 -79.52005808047 0.0026559939374 27.160439928813
8.666450000000001 0.0026496078538 -6.068269917047 0.9999916611042 -79.52076725164 0.9999916611042 -79.52076725164 0.0026518059778 27.186661877641
8.666500000000001 0.0026453945934 -6.095589221482 0.9999916650940 -79.52147752452 0.9999916650940 -79.52147752452 0.0026476001795 27.213086870456
8.666550000000001 0.0026411632966 -6.123111642134 0.9999916690634 -79.52218890755 0.9999916690634 -79.52218890755 0.0026433764119 27.239717335264
8.666600000000001 0.0026369138632 -6.150839411750 0.9999916730123 -79.52290140732 0.9999916730123 -79.52290140732 0.0026391345756 27.266555539215
8.666650000000001 0.0026326461562 -6.178775013830 0.9999916769398 -79.52361503262 0.9999916769398 -79.52361503262 0.0026348745347 27.293604026583
8.666700000000001 0.0026283600499 -6.206920907653 0.9999916808457 -79.52432979160 0.9999916808457 -79.52432979160 0.0026305961643 27.320865287117
8.666750000000000 0.0026240554186 -6.235279562255 0.9999916847290 -79.52504569239 0.9999916847290 -79.52504569239 0.0026262993400 27.348341861363
8.666800000000000 0.0026197321447 -6.263853454594 0.9999916885896 -79.52576274270 0.9999916885896 -79.52576274270 0.0026219839447 27.376036246920
8.666850000000000 0.0026153900941 -6.292645188985 0.9999916924273 -79.52648095120 0.9999916924274 -79.52648095120 0.0026176498453 27.403951088901
8.666900000000000 0.0026110291429 -6.321657364116 0.9999916962429 -79.52720032598 0.9999916962429 -79.52720032598 0.0026132969181 27.432088980194
8.666950000000000 0.0026066491512 -6.350892620022 0.9999917000328 -79.52792087605 0.9999917000328 -79.52792087605 0.0026089250260 27.460452734274
8.667000000000000 0.0026022500020 -6.380353610198 0.9999917037992 -79.52864260916 0.9999917037992 -79.52864260916 0.0026045340513 27.489044942264
8.667050000000000 0.0025978315493 -6.410043134571 0.9999917075407 -79.52936553472 0.9999917075407 -79.52936553472 0.0026001238497 27.517868487698
8.667100000000001 0.0025933936812 -6.439963830097 0.9999917112572 -79.53008966016 0.9999917112572 -79.53008966016 0.0025956943100 27.546926046074
8.667150000000001 0.0025889362402 -6.470118663374 0.9999917149479 -79.53081499564 0.9999917149479 -79.53081499564 0.0025912452760 27.576220640602
8.667200000000001 0.0025844590983 -6.500510445879 0.9999917186123 -79.53154154957 0.9999917186123 -79.53154154957 0.0025867766206 27.605755133996
8.667250000000001 0.0025799621265 -6.531142060018 0.9999917222510 -79.53226933045 0.9999917222510 -79.53226933045 0.0025822882154 27.635532415514
8.667300000000001 0.0025754451798 -6.562016455546 0.9999917258612 -79.53299834771 0.9999917258612 -79.53299834771 0.0025777799178 27.665555586608
8.667350000000001 0.0025709081237 -6.593136672602 0.9999917294451 -79.53372861022 0.9999917294451 -79.53372861022 0.0025732515928 27.695827618009
8.667400000000001 0.0025663508157 -6.624505737128 0.9999917330005 -79.53446012731 0.9999917330005 -79.53446012731 0.0025687030999 27.726351670544
8.667450000000001 0.0025617731034 -6.656126834407 0.9999917365269 -79.53519290892 0.9999917365269 -79.53519290892 0.0025641342880 27.757130972159
8.667500000000000 0.0025571748647 -6.688002973363 0.9999917400236 -79.53592696321 0.9999917400236 -79.53592696321 0.0025595450360 27.788168602112
8.667550000000000 0.0025525559369 -6.720137522884 0.9999917434914 -79.53666230080 0.9999917434914 -79.53666230080 0.0025549351818 27.819467925569
8.667600000000000 0.0025479161884 -6.752533623536 0.9999917469286 -79.53739893041 0.9999917469286 -79.53739893041 0.0025503045958 27.851032194283
8.667650000000000 0.0025432554597 -6.785194704846 0.9999917503355 -79.53813686253 0.9999917503355 -79.53813686253 0.0025456531190 27.882864855538
8.667700000000000 0.0025385736068 -6.818124080316 0.9999917537101 -79.53887610664 0.9999917537101 -79.53887610664 0.0025409806095 27.914969345347
8.667750000000000 0.0025338704902 -6.851325157001 0.9999917570536 -79.53961667207 0.9999917570536 -79.53961667207 0.0025362869281 27.947349054110
8.667800000000000 0.0025291459479 -6.884801490527 0.9999917603649 -79.54035856946 0.9999917603649 -79.54035856946 0.0025315719142 27.980007625843
8.667850000000001 0.0025243998131 -6.918556721731 0.9999917636428 -79.54110180976 0.9999917636428 -79.54110180976 0.0025268354031 28.012948787534
8.667900000000001 0.0025196319682 -6.952594223037 0.9999917668871 -79.54184640101 0.9999917668871 -79.54184640101 0.0025220772778 28.046175959919
8.667950000000001 0.0025148422322 -6.986917868113 0.9999917700978 -79.54259235506 0.9999917700978 -79.54259235506 0.0025172973586 28.079693052085
8.668000000000001 0.0025100304624 -7.021531244181 0.9999917732720 -79.54333968145 0.9999917732720 -79.54333968145 0.0025124955054 28.113503822359
8.668050000000001 0.0025051964808 -7.056438380040 0.9999917764124 -79.54408839197 0.9999917764124 -79.54408839197 0.0025076715397 28.147612221057
8.668100000000001 0.0025003401464 -7.091642946608 0.9999917795153 -79.54483849606 0.9999917795153 -79.54483849606 0.0025028253237 28.182022119699
8.668150000000001 0.0024954613030 -7.127148906149 0.9999917825824 -79.54559000423 0.9999917825824 -79.54559000423 0.0024979567013 28.216737451189
8.668200000000001 0.0024905597632 -7.162960424476 0.9999917856120 -79.54634292880 0.9999917856120 -79.54634292880 0.0024930654872 28.251762500145
8.668250000000000 0.0024856353863 -7.199081425378 0.9999917886036 -79.54709727934 0.9999917886036 -79.54709727934 0.0024881515420 28.287101250267
8.668300000000000 0.0024806879948 -7.235516156550 0.9999917915569 -79.54785306766 0.9999917915569 -79.54785306766 0.0024832146898 28.322758015862
8.668350000000000 0.0024757174256 -7.272268789231 0.9999917944697 -79.54861030471 0.9999917944697 -79.54861030471 0.0024782547696 28.358737103774
8.668400000000000 0.0024707235020 -7.309343748804 0.9999917973437 -79.54936900232 0.9999917973437 -79.54936900232 0.0024732716050 28.395042909785
8.668450000000000 0.0024657060613 -7.346745305371 0.9999918001758 -79.55012917144 0.9999918001758 -79.55012917144 0.0024682650365 28.431679896224
8.668500000000000 0.0024606649579 -7.384477752544 0.9999918029660 -79.55089082208 0.9999918029660 -79.55089082208 0.0024632349195 28.468652399089
8.668550000000000 0.0024555999646 -7.422546049908 0.9999918057143 -79.55165396917 0.9999918057143 -79.55165396917 0.0024581810283 28.505965432506
8.668600000000001 0.0024505109407 -7.460954596827 0.9999918084206 -79.55241862246 0.9999918084206 -79.55241862246 0.0024531032233 28.543623442666
8.668650000000001 0.0024453977234 -7.499707962706 0.9999918110826 -79.55318479304 0.9999918110826 -79.55318479304 0.0024480013444 28.581631162678
8.668700000000001 0.0024402600974 -7.538811272253 0.9999918137012 -79.55395249523 0.9999918137012 -79.55395249523 0.0024428751773 28.619993722155
8.668750000000001 0.0024350979116 -7.578269134040 0.9999918162728 -79.55472173944 0.9999918162728 -79.55472173944 0.0024377245740 28.658715946530
8.668800000000001 0.0024299109553 -7.618086806622 0.9999918187989 -79.55549253979 0.9999918187989 -79.55549253979 0.0024325493247 28.697803085226
8.668850000000001 0.0024246990782 -7.658269085398 0.9999918212772 -79.55626490673 0.9999918212772 -79.55626490673 0.0024273492817 28.737260084655
8.668900000000001 0.0024194620799 -7.698821326815 0.9999918237096 -79.55703885383 0.9999918237096 -79.55703885383 0.0024221242448 28.777092279241
8.668950000000001 0.0024141997808 -7.739748675705 0.9999918260924 -79.55781439334 0.9999918260924 -79.55781439334 0.0024168740381 28.817305040555
8.669000000000000 0.0024089119794 -7.781056638151 0.9999918284260 -79.55859153895 0.9999918284260 -79.55859153895 0.0024115984615 28.857903910945
8.669050000000000 0.0024035984930 -7.822750642264 0.9999918307100 -79.55937030322 0.9999918307100 -79.55937030322 0.0024062973341 28.898894399066
8.669100000000000 0.0023982591560 -7.864836026524 0.9999918329420 -79.56015069770 0.9999918329420 -79.56015069770 0.0024009704930 28.940282011867
8.669150000000000 0.0023928937103 -7.907319014898 0.9999918351226 -79.56093273958 0.9999918351226 -79.56093273958 0.0023956176816 28.982073013466
8.669200000000000 0.0023875020291 -7.950204871676 0.9999918372509 -79.56171643817 0.9999918372509 -79.56171643817 0.0023902387750 29.024272768326
8.669250000000000 0.0023820838689 -7.993499805998 0.9999918393235 -79.56250180980 0.9999918393235 -79.56250180980 0.0023848335336 29.066887708750
8.669300000000000 0.0023766390581 -8.037209718612 0.9999918413432 -79.56328886660 0.9999918413432 -79.56328886660 0.0023794017859 29.109923676579
8.669350000000000 0.0023711673842 -8.081340784492 0.9999918433066 -79.56407762314 0.9999918433066 -79.56407762314 0.0023739433229 29.153387072087
8.669400000000001 0.0023656686451 -8.125899256124 0.9999918452124 -79.56486809341 0.9999918452124 -79.56486809341 0.0023684579452 29.197284273252
8.669450000000001 0.0023601426325 -8.170891634754 0.9999918470629 -79.56566029188 0.9999918470629 -79.56566029188 0.0023629454448 29.241621750207
8.669500000000001 0.0023545891551 -8.216324227345 0.9999918488536 -79.56645423193 0.9999918488536 -79.56645423193 0.0023574056351 29.286406085503
8.669550000000001 0.0023490079878 -8.262203816935 0.9999918505836 -79.56724992909 0.9999918505836 -79.56724992909 0.0023518382933 29.331644181318
8.669600000000001 0.0023433989388 -8.308537081254 0.9999918522537 -79.56804739694 0.9999918522537 -79.56804739694 0.0023462432290 29.377342751434
8.669650000000001 0.0023377617641 -8.355331165666 0.9999918538617 -79.56884665224 0.9999918538617 -79.56884665224 0.0023406202016 29.423509128030
8.669700000000001 0.0023320962870 -8.402592865201 0.9999918554082 -79.56964770774 0.9999918554082 -79.56964770774 0.0023349690360 29.470150153022
8.669750000000001 0.0023264022567 -8.450329602110 0.9999918568896 -79.57045058069 0.9999918568896 -79.57045058069 0.0023292894857 29.517273498419
8.669800000000000 0.0023206794948 -8.498548448658 0.9999918583068 -79.57125528407 0.9999918583068 -79.57125528407 0.0023235813736 29.564886278235
8.669850000000000 0.0023149277386 -8.547257233310 0.9999918596576 -79.57206183595 0.9999918596576 -79.57206183595 0.0023178444407 29.612996504768
8.669900000000000 0.0023091467968 -8.596463386262 0.9999918609420 -79.57287025020 0.9999918609420 -79.57287025020 0.0023120784976 29.661611695538
8.669950000000000 0.0023033364262 -8.646174840485 0.9999918621573 -79.57368054380 0.9999918621573 -79.57368054380 0.0023062833054 29.710739999540
8.670000000000000 0.0022974964251 -8.696399397745 0.9999918633034 -79.57449273138 0.9999918633034 -79.57449273138 0.0023004586643 29.760389312008
8.670050000000000 0.0022916265343 -8.747145423988 0.9999918643775 -79.57530683102 0.9999918643775 -79.57530683102 0.0022946043195 29.810568228991