! Sonnet Data File
! From: emgraph Version : 16.52
! From Project: 171117_Xmon_fullysym
! Data is De-embedded 
! Data File Written: 11/26/2017 17:14:23
!< HDATE 11/22/2017 16:48:52
!< MDATE 11/23/2017 10:16:42
!< PARAMS
!< Lj = 11.0
!< Gap = 1.0
!< Pwid = 2000.0
!< Airgap = 6.0
!< Width = 10.0
!< Lj1 = 9.0
!< END PARAMS
# GHZ S MA R 50.90000
8.750000000000000 0.0240794320232 -2.929492852194 0.9997059330139 -80.49270982394 0.9997059330156 -80.49270982378 0.0240808157183 21.958363633524
!< P1 F=8.75 Eeff=(6.44841643 -2.9796e-5) Z0=(50.9085185 1.17018e-4) R=0.0 C=0.0 
!< P2 F=8.75 Eeff=(6.44841643 -2.9796e-5) Z0=(50.9085185 1.17018e-4) R=0.0 C=0.0 
8.750100000000000 0.0240750682647 -2.933311457031 0.9997060346179 -80.49389368565 0.9997060346179 -80.49389368565 0.0240764537318 21.959832240469
8.750200000000001 0.0240706874060 -2.937141415727 0.9997061365961 -80.49507855576 0.9997061365961 -80.49507855576 0.0240720746537 21.961310270555
8.750300000000001 0.0240662893466 -2.940982790509 0.9997062389506 -80.49626444003 0.9997062389506 -80.49626444003 0.0240676783851 21.962797791470
8.750400000000001 0.0240618739809 -2.944835655600 0.9997063416830 -80.49745134471 0.9997063416830 -80.49745134471 0.0240632648207 21.964294868723
8.750500000000001 0.0240574411967 -2.948700090124 0.9997064447955 -80.49863927641 0.9997064447955 -80.49863927641 0.0240588338484 21.965801570139
8.750600000000000 0.0240529909133 -2.952576155841 0.9997065482898 -80.49982823993 0.9997065482898 -80.49982823993 0.0240543853876 21.967317947112
8.750700000000000 0.0240485230256 -2.956463928829 0.9997066521683 -80.50101824148 0.9997066521683 -80.50101824148 0.0240499193332 21.968844063545
8.750800000000000 0.0240440374246 -2.960363488419 0.9997067564337 -80.50220928752 0.9997067564337 -80.50220928752 0.0240454355760 21.970379984863
8.750900000000000 0.0240395340166 -2.964274901571 0.9997068610868 -80.50340138357 0.9997068610868 -80.50340138357 0.0240409340227 21.971925772036
8.751000000000001 0.0240350126843 -2.968198252256 0.9997069661302 -80.50459453657 0.9997069661302 -80.50459453657 0.0240364145564 21.973481495321
8.751100000000001 0.0240304733492 -2.972133601816 0.9997070715659 -80.50578875117 0.9997070715659 -80.50578875117 0.0240318770981 21.975047205493
8.751200000000001 0.0240259158861 -2.976081037444 0.9997071773959 -80.50698403478 0.9997071773959 -80.50698403478 0.0240273215232 21.976622978900
8.751300000000001 0.0240213401902 -2.980040638953 0.9997072836236 -80.50818039360 0.9997072836236 -80.50818039360 0.0240227477263 21.978208877600
8.751400000000000 0.0240167461750 -2.984012468877 0.9997073902494 -80.50937783275 0.9997073902494 -80.50937783275 0.0240181556216 21.979804960360
8.751500000000000 0.0240121337100 -2.987996620182 0.9997074972763 -80.51057635994 0.9997074972763 -80.51057635994 0.0240135450785 21.981411304860
8.751600000000000 0.0240075026955 -2.991993165521 0.9997076047056 -80.51177598106 0.9997076047056 -80.51177598106 0.0240089159976 21.983027975151
8.751700000000001 0.0240028530224 -2.996002188810 0.9997077125415 -80.51297670260 0.9997077125415 -80.51297670260 0.0240042682692 21.984655035321
8.751800000000001 0.0239981845902 -3.000023760701 0.9997078207841 -80.51417853047 0.9997078207841 -80.51417853047 0.0239996017938 21.986292552564
8.751900000000001 0.0239934972684 -3.004057975615 0.9997079294366 -80.51538147241 0.9997079294366 -80.51538147241 0.0239949164404 21.987940604675
8.752000000000001 0.0239887909603 -3.008104906763 0.9997080385012 -80.51658553413 0.9997080385012 -80.51658553413 0.0239902121127 21.989599253137
8.752100000000000 0.0239840655607 -3.012164631274 0.9997081479797 -80.51779072187 0.9997081479797 -80.51779072187 0.0239854887054 21.991268565543
8.752200000000000 0.0239793209430 -3.016237241401 0.9997082578748 -80.51899704311 0.9997082578748 -80.51899704311 0.0239807460920 21.992948618286
8.752300000000000 0.0239745569990 -3.020322817003 0.9997083681888 -80.52020450425 0.9997083681888 -80.52020450425 0.0239759841645 21.994639479968
8.752400000000000 0.0239697736026 -3.024421448281 0.9997084789235 -80.52141311275 0.9997084789235 -80.52141311275 0.0239712027970 21.996341229286
8.752500000000001 0.0239649706595 -3.028533209759 0.9997085900820 -80.52262287421 0.9997085900820 -80.52262287421 0.0239664018950 21.998053925655
8.752600000000001 0.0239601480359 -3.032658194569 0.9997087016655 -80.52383379653 0.9997087016655 -80.52383379653 0.0239615813252 21.999777653977
8.752700000000001 0.0239553056178 -3.036796491189 0.9997088136780 -80.52504588646 0.9997088136780 -80.52504588646 0.0239567409731 22.001512482461
8.752800000000001 0.0239504432881 -3.040948182942 0.9997089261205 -80.52625915092 0.9997089261205 -80.52625915092 0.0239518807224 22.003258487738
8.752900000000000 0.0239455609271 -3.045113359896 0.9997090389960 -80.52747359702 0.9997090389960 -80.52747359702 0.0239470004529 22.005015743765
8.753000000000000 0.0239406584155 -3.049292108126 0.9997091523060 -80.52868923180 0.9997091523060 -80.52868923180 0.0239421000461 22.006784327529
8.753100000000000 0.0239357356307 -3.053484520529 0.9997092660540 -80.52990606251 0.9997092660540 -80.52990606251 0.0239371793789 22.008564313981
8.753200000000001 0.0239307924604 -3.057690681023 0.9997093802420 -80.53112409583 0.9997093802420 -80.53112409583 0.0239322383393 22.010355775834
8.753300000000001 0.0239258287585 -3.061910695705 0.9997094948732 -80.53234334038 0.9997094948732 -80.53234334038 0.0239272767810 22.012158801508
8.753400000000001 0.0239208444109 -3.066144647492 0.9997096099487 -80.53356380290 0.9997096099487 -80.53356380290 0.0239222945908 22.013973467056
8.753500000000001 0.0239158393010 -3.070392626192 0.9997097254716 -80.53478549032 0.9997097254716 -80.53478549032 0.0239172916515 22.015799845527
8.753600000000000 0.0239108132960 -3.074654730244 0.9997098414450 -80.53600841050 0.9997098414450 -80.53600841050 0.0239122678306 22.017638019428
8.753700000000000 0.0239057662628 -3.078931056185 0.9997099578708 -80.53723257130 0.9997099578708 -80.53723257130 0.0239072229953 22.019488073933
8.753800000000000 0.0239006980842 -3.083221692599 0.9997100747512 -80.53845797967 0.9997100747512 -80.53845797967 0.0239021570284 22.021350084751
8.753900000000000 0.0238956086219 -3.087526743680 0.9997101920901 -80.53968464380 0.9997101920901 -80.53968464380 0.0238970697915 22.023224136450
8.754000000000001 0.0238904977529 -3.091846298348 0.9997103098883 -80.54091257096 0.9997103098883 -80.54091257096 0.0238919611621 22.025110311530
8.754100000000001 0.0238853653413 -3.096180460498 0.9997104281499 -80.54214176920 0.9997104281499 -80.54214176920 0.0238868310041 22.027008692927
8.754200000000001 0.0238802112558 -3.100529326002 0.9997105468765 -80.54337224630 0.9997105468765 -80.54337224630 0.0238816791867 22.028919366547
8.754300000000001 0.0238750353365 -3.104893011650 0.9997106660716 -80.54460401171 0.9997106660716 -80.54460401171 0.0238765055498 22.030842430118
8.754400000000000 0.0238698374997 -3.109271587079 0.9997107857369 -80.54583707040 0.9997107857369 -80.54583707040 0.0238713100099 22.032777943584
8.754500000000000 0.0238646175658 -3.113665181721 0.9997109058765 -80.54707143301 0.9997109058765 -80.54707143301 0.0238660923873 22.034726015091
8.754600000000000 0.0238593754152 -3.118073885209 0.9997110264917 -80.54830710660 0.9997110264917 -80.54830710660 0.0238608525630 22.036686725355
8.754700000000000 0.0238541109182 -3.122497797127 0.9997111475856 -80.54954409887 0.9997111475856 -80.54954409887 0.0238555904072 22.038660157428
8.754800000000001 0.0238488239143 -3.126937035554 0.9997112691616 -80.55078241931 0.9997112691616 -80.55078241931 0.0238503057594 22.040646410864
8.754900000000001 0.0238435142792 -3.131391695161 0.9997113912218 -80.55202207529 0.9997113912218 -80.55202207529 0.0238449984956 22.042645568189
8.755000000000001 0.0238381818629 -3.135861886987 0.9997115137691 -80.55326307568 0.9997115137691 -80.55326307568 0.0238396684659 22.044657725151
8.755100000000001 0.0238328265319 -3.140347713182 0.9997116368060 -80.55450542840 0.9997116368060 -80.55450542840 0.0238343155370 22.046682968388
8.755200000000000 0.0238274481290 -3.144849290050 0.9997117603358 -80.55574914275 0.9997117603358 -80.55574914275 0.0238289395518 22.048721397369
8.755300000000000 0.0238220465149 -3.149366725782 0.9997118843621 -80.55699422699 0.9997118843621 -80.55699422699 0.0238235403707 22.050773100431
8.755400000000000 0.0238166215377 -3.153900130933 0.9997120088867 -80.55824069010 0.9997120088867 -80.55824069010 0.0238181178425 22.052838177685
8.755500000000001 0.0238111730634 -3.158449609399 0.9997121339124 -80.55948854003 0.9997121339124 -80.55948854003 0.0238126718331 22.054916716712
8.755600000000001 0.0238057009313 -3.163015281256 0.9997122594426 -80.56073778629 0.9997122594426 -80.56073778629 0.0238072021821 22.057008819303
8.755700000000001 0.0238002049931 -3.167597256795 0.9997123854794 -80.56198843766 0.9997123854794 -80.56198843766 0.0238017087414 22.059114583669
8.755800000000001 0.0237946850962 -3.172195655511 0.9997125120274 -80.56324050319 0.9997125120274 -80.56324050319 0.0237961913582 22.061234104465
8.755900000000000 0.0237891410865 -3.176810591203 0.9997126390886 -80.56449399200 0.9997126390886 -80.56449399200 0.0237906498786 22.063367484107
8.756000000000000 0.0237835728165 -3.181442176240 0.9997127666657 -80.56574891283 0.9997127666657 -80.56574891283 0.0237850841556 22.065514819289
8.756100000000000 0.0237779801286 -3.186090531083 0.9997128947623 -80.56700527502 0.9997128947623 -80.56700527502 0.0237794940313 22.067676211095
8.756200000000000 0.0237723628571 -3.190755778885 0.9997130233810 -80.56826308837 0.9997130233810 -80.56826308837 0.0237738793407 22.069851767243
8.756300000000001 0.0237667208502 -3.195438036915 0.9997131525253 -80.56952236189 0.9997131525253 -80.56952236189 0.0237682399317 22.072041586561
8.756400000000001 0.0237610539549 -3.200137421903 0.9997132821978 -80.57078310464 0.9997132821978 -80.57078310464 0.0237625756515 22.074245770240
8.756500000000001 0.0237553619908 -3.204854069579 0.9997134124026 -80.57204532730 0.9997134124026 -80.57204532730 0.0237568863200 22.076464431939
8.756600000000001 0.0237496448199 -3.209588086316 0.9997135431415 -80.57330903804 0.9997135431415 -80.57330903804 0.0237511717994 22.078697667424
8.756700000000000 0.0237439022611 -3.214339611102 0.9997136744192 -80.57457424762 0.9997136744192 -80.57457424762 0.0237454319084 22.080945589524
8.756800000000000 0.0237381341512 -3.219108765113 0.9997138062376 -80.57584096568 0.9997138062376 -80.57584096568 0.0237396664844 22.083208308706
8.756900000000000 0.0237323403317 -3.223895672826 0.9997139386005 -80.57710920162 0.9997139386005 -80.57710920162 0.0237338753690 22.085485927888
8.757000000000000 0.0237265206264 -3.228700467787 0.9997140715114 -80.57837896588 0.9997140715114 -80.57837896588 0.0237280583857 22.087778561728
8.757100000000001 0.0237206748650 -3.233523278284 0.9997142049729 -80.57965026855 0.9997142049729 -80.57965026855 0.0237222153651 22.090086323445
8.757200000000001 0.0237148028825 -3.238364234190 0.9997143389890 -80.58092311942 0.9997143389890 -80.58092311942 0.0237163461417 22.092409320258
8.757300000000001 0.0237089045075 -3.243223464797 0.9997144735622 -80.58219752863 0.9997144735622 -80.58219752863 0.0237104505448 22.094747667219
8.757400000000001 0.0237029795618 -3.248101108588 0.9997146086969 -80.58347350675 0.9997146086968 -80.58347350675 0.0237045283959 22.097101478951
8.757500000000000 0.0236970278730 -3.252997297698 0.9997147443960 -80.58475106400 0.9997147443960 -80.58475106400 0.0236985795229 22.099470870547
8.757600000000000 0.0236910492520 -3.257912173534 0.9997148806624 -80.58603021157 0.9997148806624 -80.58603021157 0.0236926037374 22.101855967011
8.757700000000000 0.0236850435334 -3.262845867286 0.9997150174999 -80.58731095927 0.9997150174999 -80.58731095927 0.0236866008736 22.104256878113
8.757800000000001 0.0236790105349 -3.267798518983 0.9997151549120 -80.58859331792 0.9997151549120 -80.58859331792 0.0236805707496 22.106673724381
8.757900000000001 0.0236729500650 -3.272770277177 0.9997152929033 -80.58987729886 0.9997152929033 -80.58987729886 0.0236745131737 22.109106629206
8.758000000000001 0.0236668619492 -3.277761274615 0.9997154314759 -80.59116291243 0.9997154314759 -80.59116291243 0.0236684279721 22.111555712754
8.758100000000001 0.0236607460003 -3.282771655356 0.9997155706331 -80.59245016972 0.9997155706331 -80.59245016972 0.0236623149577 22.114021099430
8.758200000000000 0.0236546020267 -3.287801569328 0.9997157103797 -80.59373908210 0.9997157103797 -80.59373908210 0.0236561739389 22.116502913710
8.758300000000000 0.0236484298545 -3.292851151863 0.9997158507183 -80.59502965988 0.9997158507183 -80.59502965988 0.0236500047421 22.119001274983
8.758400000000000 0.0236422292772 -3.297920562830 0.9997159916538 -80.59632191530 0.9997159916538 -80.59632191530 0.0236438071607 22.121516316524
8.758500000000000 0.0236360001109 -3.303009942425 0.9997161331883 -80.59761585925 0.9997161331883 -80.59761585925 0.0236375810116 22.124048165491
8.758600000000001 0.0236297421525 -3.308119449694 0.9997162753267 -80.59891150379 0.9997162753267 -80.59891150379 0.0236313260915 22.126596953902
8.758700000000001 0.0236234552208 -3.313249225782 0.9997164180717 -80.60020885964 0.9997164180717 -80.60020885964 0.0236250422196 22.129162806776
8.758800000000001 0.0236171391056 -3.318399434824 0.9997165614284 -80.60150793929 0.9997165614284 -80.60150793929 0.0236187291855 22.131745860817
8.758900000000001 0.0236107936195 -3.323570223244 0.9997167053998 -80.60280875383 0.9997167053998 -80.60280875383 0.0236123868022 22.134346244589
8.759000000000000 0.0236044185470 -3.328761754355 0.9997168499889 -80.60411131603 0.9997168499889 -80.60411131603 0.0236060148550 22.136964102855
8.759100000000000 0.0235980136972 -3.333974182193 0.9997169952008 -80.60541563724 0.9997169952008 -80.60541563724 0.0235996131526 22.139599563002
8.759200000000000 0.0235915788682 -3.339207664726 0.9997171410390 -80.60672172942 0.9997171410390 -80.60672172942 0.0235931814932 22.142252761556
8.759300000000001 0.0235851138404 -3.344462371091 0.9997172875077 -80.60802960559 0.9997172875077 -80.60802960559 0.0235867196575 22.144923845045
8.759400000000001 0.0235786184111 -3.349738461332 0.9997174346108 -80.60933927777 0.9997174346108 -80.60933927777 0.0235802274432 22.147612950741
8.759500000000001 0.0235720923795 -3.355036093610 0.9997175823517 -80.61065075787 0.9997175823517 -80.61065075787 0.0235737046498 22.150320216486
8.759600000000001 0.0235655355171 -3.360355444232 0.9997177307348 -80.61196405944 0.9997177307347 -80.61196405944 0.0235671510488 22.153045794817
8.759700000000000 0.0235589476265 -3.365696670273 0.9997178797633 -80.61327919418 0.9997178797633 -80.61327919418 0.0235605664435 22.155789822574
8.759800000000000 0.0235523284779 -3.371059954203 0.9997180294433 -80.61459617574 0.9997180294433 -80.61459617574 0.0235539506034 22.158552450150
8.759900000000000 0.0235456778649 -3.376445457278 0.9997181797774 -80.61591501635 0.9997181797774 -80.61591501635 0.0235473033231 22.161333822279
8.760000000000000 0.0235389955576 -3.381853358790 0.9997183307699 -80.61723572965 0.9997183307699 -80.61723572965 0.0235406243727 22.164134094150
8.760100000000001 0.0235322813332 -3.387283834658 0.9997184824249 -80.61855832885 0.9997184824249 -80.61855832885 0.0235339135299 22.166953417277
8.760200000000001 0.0235255349698 -3.392737063171 0.9997186347477 -80.61988282713 0.9997186347477 -80.61988282713 0.0235271705723 22.169791941054
8.760300000000001 0.0235187562502 -3.398213214091 0.9997187877410 -80.62120923736 0.9997187877410 -80.62120923736 0.0235203952838 22.172649818202
8.760400000000001 0.0235119449300 -3.403712478454 0.9997189414096 -80.62253757403 0.9997189414096 -80.62253757403 0.0235135874201 22.175527213292
8.760500000000000 0.0235051007890 -3.409235036393 0.9997190957589 -80.62386785024 0.9997190957589 -80.62386785024 0.0235067467605 22.178424275384
8.760600000000000 0.0234982235945 -3.414781067472 0.9997192507915 -80.62520007976 0.9997192507915 -80.62520007976 0.0234998730736 22.181341168374
8.760700000000000 0.0234913131017 -3.420350767716 0.9997194065131 -80.62653427713 0.9997194065131 -80.62653427713 0.0234929661142 22.184278056070
8.760800000000000 0.0234843690768 -3.425944322818 0.9997195629278 -80.62787045622 0.9997195629279 -80.62787045622 0.0234860256489 22.187235100532
8.760900000000001 0.0234773912878 -3.431561919660 0.9997197200404 -80.62920863081 0.9997197200404 -80.62920863081 0.0234790514459 22.190212461761
8.761000000000001 0.0234703794935 -3.437203748632 0.9997198778545 -80.63054881520 0.9997198778545 -80.63054881520 0.0234720432644 22.193210307870
8.761100000000001 0.0234633334394 -3.442870013101 0.9997200363757 -80.63189102450 0.9997200363757 -80.63189102450 0.0234650008500 22.196228811197
8.761200000000001 0.0234562528779 -3.448560907536 0.9997201956074 -80.63323527338 0.9997201956074 -80.63323527338 0.0234579239559 22.199268145310
8.761300000000000 0.0234491375815 -3.454276621036 0.9997203555552 -80.63458157538 0.9997203555552 -80.63458157538 0.0234508123541 22.202328468099
8.761400000000000 0.0234419872681 -3.460017372154 0.9997205162235 -80.63592994721 0.9997205162235 -80.63592994721 0.0234436657634 22.205409971985
8.761500000000000 0.0234348017081 -3.465783352547 0.9997206776181 -80.63728040253 0.9997206776181 -80.63728040253 0.0234364839536 22.208512817113
8.761600000000001 0.0234275806184 -3.471574779218 0.9997208397419 -80.63863295811 0.9997208397419 -80.63863295811 0.0234292666431 22.211637200896
8.761700000000001 0.0234203237746 -3.477391839815 0.9997210025996 -80.63998762729 0.9997210025996 -80.63998762729 0.0234220136074 22.214783283815
8.761800000000001 0.0234130308925 -3.483234760663 0.9997211661972 -80.64134442693 0.9997211661972 -80.64134442693 0.0234147245623 22.217951258770
8.761900000000001 0.0234057017232 -3.489103745738 0.9997213305397 -80.64270337182 0.9997213305397 -80.64270337182 0.0234073992592 22.221141300964
8.762000000000000 0.0233983359936 -3.494999014294 0.9997214956322 -80.64406447819 0.9997214956322 -80.64406447819 0.0234000374250 22.224353600166
8.762100000000000 0.0233909334303 -3.500920781773 0.9997216614780 -80.64542776222 0.9997216614780 -80.64542776222 0.0233926387876 22.227588350972
8.762200000000000 0.0233834937522 -3.506869278902 0.9997218280842 -80.64679324064 0.9997218280842 -80.64679324064 0.0233852030652 22.230845744313
8.762300000000000 0.0233760167002 -3.512844714020 0.9997219954542 -80.64816092881 0.9997219954542 -80.64816092881 0.0233777299997 22.234125968241
8.762400000000001 0.0233685020001 -3.518847311150 0.9997221635934 -80.64953084302 0.9997221635934 -80.64953084302 0.0233702193172 22.237429214746
8.762500000000001 0.0233609493671 -3.524877302228 0.9997223325078 -80.65090300020 0.9997223325077 -80.65090300020 0.0233626707327 22.240755681909
8.762600000000001 0.0233533585093 -3.530934920766 0.9997225022019 -80.65227741766 0.9997225022019 -80.65227741766 0.0233550839549 22.244105575873
8.762700000000001 0.0233457291535 -3.537020392656 0.9997226726815 -80.65365411164 0.9997226726815 -80.65365411164 0.0233474587109 22.247479090123
8.762800000000000 0.0233380610040 -3.543133955761 0.9997228439513 -80.65503309969 0.9997228439513 -80.65503309969 0.0233397947055 22.250876433962
8.762900000000000 0.0233303537792 -3.549275840295 0.9997230160160 -80.65641439853 0.9997230160160 -80.65641439853 0.0233320916576 22.254297809509
8.763000000000000 0.0233226071805 -3.555446292543 0.9997231888823 -80.65779802592 0.9997231888823 -80.65779802592 0.0233243492684 22.257743424837
8.763100000000000 0.0233148209057 -3.561645557965 0.9997233625556 -80.65918399980 0.9997233625556 -80.65918399980 0.0233165672361 22.261213494240
8.763200000000001 0.0233069946530 -3.567873880515 0.9997235370404 -80.66057233807 0.9997235370404 -80.66057233807 0.0233087452598 22.264708234589
8.763300000000001 0.0232991281328 -3.574131502212 0.9997237123427 -80.66196305797 0.9997237123427 -80.66196305797 0.0233008830499 22.268227852608
8.763400000000001 0.0232912210324 -3.580418676769 0.9997238884675 -80.66335617805 0.9997238884675 -80.66335617805 0.0232929802943 22.271772571754
8.763500000000001 0.0232832730387 -3.586735662701 0.9997240654214 -80.66475171693 0.9997240654214 -80.66475171693 0.0232850366799 22.275342613541
8.763600000000000 0.0232752838356 -3.593082718121 0.9997242432096 -80.66614969337 0.9997242432096 -80.66614969337 0.0232770518913 22.278938204662
8.763700000000000 0.0232672531180 -3.599460095669 0.9997244218374 -80.66755012552 0.9997244218374 -80.66755012552 0.0232690256237 22.282559566304
8.763800000000000 0.0232591805697 -3.605868060403 0.9997246013120 -80.66895303216 0.9997246013120 -80.66895303216 0.0232609575608 22.286206922619
8.763900000000001 0.0232510658512 -3.612306886752 0.9997247816384 -80.67035843347 0.9997247816384 -80.67035843347 0.0232528473639 22.289880517276
8.764000000000001 0.0232429086585 -3.618776828461 0.9997249628214 -80.67176634750 0.9997249628214 -80.67176634750 0.0232446947298 22.293580574508
8.764100000000001 0.0232347086529 -3.625278165342 0.9997251448677 -80.67317679437 0.9997251448677 -80.67317679437 0.0232364993198 22.297307335894
8.764200000000001 0.0232264654928 -3.631811179989 0.9997253277838 -80.67458979441 0.9997253277838 -80.67458979441 0.0232282607926 22.301061045820
8.764300000000000 0.0232181788534 -3.638376143112 0.9997255115751 -80.67600536690 0.9997255115751 -80.67600536690 0.0232199788241 22.304841942158
8.764400000000000 0.0232098483973 -3.644973335828 0.9997256962479 -80.67742353191 0.9997256962479 -80.67742353190 0.0232116530772 22.308650269662
8.764500000000000 0.0232014737738 -3.651603049862 0.9997258818088 -80.67884431027 0.9997258818088 -80.67884431027 0.0232032832014 22.312486280555
8.764600000000000 0.0231930546435 -3.658265569835 0.9997260682641 -80.68026772218 0.9997260682641 -80.68026772218 0.0231948688576 22.316350222796
8.764700000000001 0.0231845906657 -3.664961179295 0.9997262556188 -80.68169378787 0.9997262556188 -80.68169378787 0.0231864097062 22.320242348510
8.764800000000001 0.0231760814673 -3.671690187241 0.9997264438798 -80.68312252953 0.9997264438798 -80.68312252953 0.0231779053742 22.324162925914
8.764900000000001 0.0231675266988 -3.678452889233 0.9997266330541 -80.68455396794 0.9997266330541 -80.68455396794 0.0231693555125 22.328112210616
8.765000000000001 0.0231589259969 -3.685249588157 0.9997268231475 -80.68598812468 0.9997268231475 -80.68598812468 0.0231607597583 22.332090469502
8.765100000000000 0.0231502790168 -3.692080577866 0.9997270141663 -80.68742502029 0.9997270141663 -80.68742502029 0.0231521177673 22.336097958812
8.765200000000000 0.0231415853678 -3.698946183838 0.9997272061180 -80.68886467797 0.9997272061180 -80.68886467797 0.0231434291491 22.340134960413
8.765300000000000 0.0231328446783 -3.705846717903 0.9997273990087 -80.69030711983 0.9997273990087 -80.69030711983 0.0231346935328 22.344201749289
8.765400000000001 0.0231240565656 -3.712782498233 0.9997275928437 -80.69175236861 0.9997275928437 -80.69175236861 0.0231259105366 22.348298609548
8.765500000000001 0.0231152206856 -3.719753834044 0.9997277876337 -80.69320044483 0.9997277876337 -80.69320044483 0.0231170798151 22.352425792083
8.765600000000001 0.0231063366092 -3.726761065432 0.9997279833807 -80.69465137393 0.9997279833807 -80.69465137393 0.0231082009421 22.356583618387
8.765700000000001 0.0230974039728 -3.733804513091 0.9997281800941 -80.69610517759 0.9997281800941 -80.69610517759 0.0230992735532 22.360772356054
8.765800000000000 0.0230884223742 -3.740884518558 0.9997283777819 -80.69756187975 0.9997283777819 -80.69756187975 0.0230902972462 22.364992300204
8.765900000000000 0.0230793914226 -3.748001408459 0.9997285764483 -80.69902150361 0.9997285764483 -80.69902150361 0.0230812716321 22.369243748596
8.766000000000000 0.0230703107138 -3.755155530544 0.9997287761022 -80.70048407323 0.9997287761022 -80.70048407323 0.0230721963065 22.373526998035
8.766100000000000 0.0230611798359 -3.762347234289 0.9997289767506 -80.70194961313 0.9997289767506 -80.70194961313 0.0230630708580 22.377842355199
8.766200000000001 0.0230519983940 -3.769576856844 0.9997291783992 -80.70341814679 0.9997291783992 -80.70341814679 0.0230538948929 22.382190121182
8.766300000000001 0.0230427659601 -3.776844764384 0.9997293810567 -80.70488969968 0.9997293810567 -80.70488969968 0.0230446679832 22.386570611278
8.766400000000001 0.0230334821035 -3.784151325563 0.9997295847316 -80.70636429743 0.9997295847316 -80.70636429743 0.0230353896983 22.390984144660
8.766500000000001 0.0230241464369 -3.791496875194 0.9997297894286 -80.70784196310 0.9997297894286 -80.70784196310 0.0230260596522 22.395431024229
8.766600000000000 0.0230147585021 -3.798881802644 0.9997299951565 -80.70932272394 0.9997299951565 -80.70932272394 0.0230166773873 22.399911587226
8.766700000000000 0.0230053178745 -3.806306476412 0.9997302019234 -80.71080660523 0.9997302019234 -80.71080660523 0.0230072424790 22.404426154771
8.766800000000000 0.0229958241088 -3.813771278860 0.9997304097369 -80.71229363348 0.9997304097369 -80.71229363348 0.0229977544827 22.408975062045
8.766900000000000 0.0229862767901 -3.821276570079 0.9997306186029 -80.71378383336 0.9997306186029 -80.71378383336 0.0229882129847 22.413558632158
8.767000000000001 0.0229766754219 -3.828822769458 0.9997308285301 -80.71527723443 0.9997308285301 -80.71527723443 0.0229786174892 22.418177231880
8.767100000000001 0.0229670195793 -3.836410255315 0.9997310395276 -80.71677386200 0.9997310395276 -80.71677386200 0.0229689675710 22.422831185871
8.767200000000001 0.0229573088222 -3.844039411477 0.9997312516024 -80.71827374229 0.9997312516024 -80.71827374229 0.0229592627908 22.427520834738
8.767300000000001 0.0229475426630 -3.851710653313 0.9997314647619 -80.71977690429 0.9997314647619 -80.71977690429 0.0229495026623 22.432246547899
8.767400000000000 0.0229377206349 -3.859424391863 0.9997316790157 -80.72128337583 0.9997316790157 -80.72128337583 0.0229396867185 22.437008678894
8.767500000000000 0.0229278422742 -3.867181030121 0.9997318943707 -80.72279318449 0.9997318943707 -80.72279318449 0.0229298144970 22.441807587773
8.767600000000000 0.0229179070898 -3.874980993443 0.9997321108350 -80.72430635953 0.9997321108350 -80.72430635953 0.0229198855074 22.446643649728
8.767700000000001 0.0229079146139 -3.882824695607 0.9997323284171 -80.72582292880 0.9997323284171 -80.72582292880 0.0229098992824 22.451517227141
8.767800000000001 0.0228978643294 -3.890712583295 0.9997325471258 -80.72734292310 0.9997325471258 -80.72734292310 0.0228998553057 22.456428713035
8.767900000000001 0.0228877557623 -3.898645078649 0.9997327669697 -80.72886637068 0.9997327669697 -80.72886637068 0.0228897531035 22.461378476878
8.768000000000001 0.0228775884078 -3.906622625053 0.9997329879577 -80.73039330159 0.9997329879577 -80.73039330159 0.0228795921719 22.466366907828
8.768100000000000 0.0228673617594 -3.914645666701 0.9997332100977 -80.73192374602 0.9997332100977 -80.73192374602 0.0228693720053 22.471394400389
8.768200000000000 0.0228570752945 -3.922714659861 0.9997334333978 -80.73345773506 0.9997334333978 -80.73345773506 0.0228590920823 22.476461360636
8.768300000000000 0.0228467285143 -3.930830054256 0.9997336578681 -80.73499529849 0.9997336578681 -80.73499529849 0.0228487519039 22.481568177217
8.768400000000000 0.0228363208786 -3.938992320706 0.9997338835164 -80.73653646845 0.9997338835164 -80.73653646845 0.0228383509315 22.486715271340
8.768500000000001 0.0228258518581 -3.947201930232 0.9997341103523 -80.73808127649 0.9997341103523 -80.73808127649 0.0228278886362 22.491903055971
8.768600000000001 0.0228153209145 -3.955459363914 0.9997343383860 -80.73962975472 0.9997343383860 -80.73962975472 0.0228173644799 22.497131949690
8.768700000000001 0.0228047275311 -3.963765082294 0.9997345676244 -80.74118193390 0.9997345676244 -80.74118193390 0.0228067779475 22.502402368329
8.768800000000001 0.0227940710960 -3.972119618646 0.9997347980786 -80.74273785048 0.9997347980786 -80.74273785048 0.0227961284278 22.507714777693
8.768900000000000 0.0227833510997 -3.980523439119 0.9997350297574 -80.74429753487 0.9997350297574 -80.74429753487 0.0227854154118 22.513069589484
8.769000000000000 0.0227725669838 -3.988977043157 0.9997352626697 -80.74586102034 0.9997352626697 -80.74586102034 0.0227746383423 22.518467246377
8.769100000000000 0.0227617181733 -3.997480944075 0.9997354968250 -80.74742834117 0.9997354968250 -80.74742834117 0.0227637966450 22.523908203093
8.769200000000000 0.0227508040802 -4.006035670604 0.9997357322344 -80.74899953242 0.9997357322344 -80.74899953242 0.0227528897322 22.529392920268
8.769300000000001 0.0227398241015 -4.014641756528 0.9997359689067 -80.75057463001 0.9997359689067 -80.75057463001 0.0227419170027 22.534921876261
8.769400000000001 0.0227287776934 -4.023299703767 0.9997362068512 -80.75215366642 0.9997362068512 -80.75215366642 0.0227308779130 22.540495514035
8.769500000000001 0.0227176642432 -4.032010061937 0.9997364460782 -80.75373667814 0.9997364460782 -80.75373667814 0.0227197718516 22.546114318777
8.769600000000001 0.0227064831208 -4.040773395754 0.9997366865986 -80.75532370277 0.9997366865986 -80.75532370277 0.0227085981889 22.551778788460
8.769700000000000 0.0226952337533 -4.049590231304 0.9997369284211 -80.75691477447 0.9997369284211 -80.75691477447 0.0226973563536 22.557489393108
8.769800000000000 0.0226839155030 -4.058461147265 0.9997371715577 -80.75850993129 0.9997371715577 -80.75850993129 0.0226860457079 22.563246637528
8.769900000000000 0.0226725277289 -4.067386717451 0.9997374160169 -80.76010921144 0.9997374160169 -80.76010921144 0.0226746656130 22.569051039846
8.770000000000001 0.0226610698259 -4.076367503631 0.9997376618099 -80.76171265103 0.9997376618099 -80.76171265103 0.0226632154642 22.574903092506
8.770100000000001 0.0226495411263 -4.085404112883 0.9997379089490 -80.76332028993 0.9997379089490 -80.76332028993 0.0226516945939 22.580803326833