! Sonnet Data File
! From: emgraph Version : 16.52
! From Project: 171117_Xmon_fullysym
! Data is De-embedded 
! Data File Written: 11/26/2017 21:44:46
!< HDATE 11/26/2017 17:24:49
!< MDATE 11/26/2017 17:24:49
!< PARAMS
!< Lj = 11.0
!< Gap = 1.0
!< Pwid = 2000.0
!< Airgap = 6.0
!< Width = 10.0
!< Lj1 = 9.2
!< END PARAMS
# GHZ S MA R 50.90000
8.600000000000001 0.0256079685483 -0.316546168968 0.9996688052919 -79.01196207223 0.9996688052918 -79.01196207251 0.0256089004927 22.302586053180
!< P1 F=8.6 Eeff=(6.44845572 -2.9799e-5) Z0=(50.9087207 1.17006e-4) R=0.0 C=0.0 
!< P2 F=8.6 Eeff=(6.44845572 -2.9799e-5) Z0=(50.9087207 1.17006e-4) R=0.0 C=0.0 
8.600200000000001 0.0256076559104 -0.319024977448 0.9996688131362 -79.01383540398 0.9996688131362 -79.01383540398 0.0256085879706 22.301318843047
8.600400000000000 0.0256073420723 -0.321504483007 0.9996688209859 -79.01570880729 0.9996688209859 -79.01570880729 0.0256082742279 22.300052147238
8.600600000000000 0.0256070269988 -0.323984658452 0.9996688288668 -79.01758228202 0.9996688288668 -79.01758228202 0.0256079592500 22.298785980466
8.600800000000001 0.0256067106874 -0.326465505088 0.9996688367790 -79.01945582831 0.9996688367790 -79.01945582831 0.0256076430345 22.297520343982
8.601000000000001 0.0256063931341 -0.328947025283 0.9996688447226 -79.02132944641 0.9996688447226 -79.02132944641 0.0256073255773 22.296255239478
8.601200000000000 0.0256060743360 -0.331429220614 0.9996688526976 -79.02320313648 0.9996688526976 -79.02320313648 0.0256070068754 22.294990668363
8.601400000000000 0.0256057542887 -0.333912093394 0.9996688607041 -79.02507689878 0.9996688607041 -79.02507689878 0.0256066869246 22.293726632587
8.601600000000001 0.0256054329884 -0.336395645887 0.9996688687424 -79.02695073352 0.9996688687424 -79.02695073352 0.0256063657210 22.292463133670
8.601800000000001 0.0256051104325 -0.338879879636 0.9996688768123 -79.02882464088 0.9996688768123 -79.02882464088 0.0256060432620 22.291200172918
8.602000000000000 0.0256047866159 -0.341364797318 0.9996688849141 -79.03069862113 0.9996688849141 -79.03069862113 0.0256057195425 22.289937752540
8.602200000000000 0.0256044615367 -0.343850400128 0.9996688930478 -79.03257267441 0.9996688930478 -79.03257267441 0.0256053945607 22.288675873455
8.602400000000001 0.0256041351891 -0.346336691293 0.9996689012136 -79.03444680104 0.9996689012136 -79.03444680104 0.0256050683106 22.287414538096
8.602600000000001 0.0256038075712 -0.348823671841 0.9996689094114 -79.03632100114 0.9996689094114 -79.03632100114 0.0256047407904 22.286153747438
8.602800000000000 0.0256034786783 -0.351311344391 0.9996689176415 -79.03819527498 0.9996689176415 -79.03819527498 0.0256044119955 22.284893503474
8.603000000000000 0.0256031485074 -0.353799710740 0.9996689259038 -79.04006962274 0.9996689259038 -79.04006962274 0.0256040819228 22.283633807627
8.603200000000001 0.0256028170538 -0.356288773392 0.9996689341986 -79.04194404469 0.9996689341986 -79.04194404469 0.0256037505676 22.282374661894
8.603400000000001 0.0256024843144 -0.358778534035 0.9996689425258 -79.04381854103 0.9996689425258 -79.04381854103 0.0256034179268 22.281116067883
8.603600000000000 0.0256021502854 -0.361268994916 0.9996689508855 -79.04569311196 0.9996689508855 -79.04569311196 0.0256030839966 22.279858027043
8.603800000000000 0.0256018149624 -0.363760158561 0.9996689592780 -79.04756775775 0.9996689592780 -79.04756775775 0.0256027487727 22.278600541278
8.604000000000001 0.0256014783424 -0.366252026477 0.9996689677032 -79.04944247859 0.9996689677032 -79.04944247859 0.0256024122519 22.277343612249
8.604200000000001 0.0256011404217 -0.368744600902 0.9996689761613 -79.05131727467 0.9996689761613 -79.05131727467 0.0256020744307 22.276087241340
8.604400000000000 0.0256008011950 -0.371237884703 0.9996689846523 -79.05319214631 0.9996689846523 -79.05319214631 0.0256017353037 22.274831430921
8.604600000000001 0.0256004606605 -0.373731878838 0.9996689931763 -79.05506709362 0.9996689931763 -79.05506709362 0.0256013948692 22.273576181994
8.604800000000001 0.0256001188124 -0.376226586783 0.9996690017336 -79.05694211695 0.9996690017336 -79.05694211695 0.0256010531212 22.272321496841
8.605000000000000 0.0255997756483 -0.378722009716 0.9996690103240 -79.05881721642 0.9996690103240 -79.05881721642 0.0256007100575 22.271067376743
8.605200000000000 0.0255994311633 -0.381218150288 0.9996690189478 -79.06069239233 0.9996690189478 -79.06069239233 0.0256003656732 22.269813823887
8.605400000000001 0.0255990853542 -0.383715010496 0.9996690276050 -79.06256764486 0.9996690276050 -79.06256764486 0.0256000199649 22.268560839628
8.605600000000001 0.0255987382161 -0.386212593020 0.9996690362958 -79.06444297431 0.9996690362958 -79.06444297431 0.0255996729279 22.267308426071
8.605800000000000 0.0255983897467 -0.388710899128 0.9996690450202 -79.06631838081 0.9996690450202 -79.06631838081 0.0255993245598 22.266056584479
8.606000000000000 0.0255980399399 -0.391209932242 0.9996690537783 -79.06819386471 0.9996690537783 -79.06819386471 0.0255989748545 22.264805317322
8.606200000000001 0.0255976887933 -0.393709693773 0.9996690625703 -79.07006942617 0.9996690625703 -79.07006942617 0.0255986238096 22.263554625821
8.606400000000001 0.0255973363025 -0.396210186078 0.9996690713962 -79.07194506542 0.9996690713961 -79.07194506542 0.0255982714208 22.262304511877
8.606600000000000 0.0255969824635 -0.398711411575 0.9996690802561 -79.07382078272 0.9996690802561 -79.07382078272 0.0255979176840 22.261054977286
8.606800000000000 0.0255966272719 -0.401213372478 0.9996690891501 -79.07569657832 0.9996690891501 -79.07569657832 0.0255975625948 22.259806024068
8.607000000000001 0.0255962707240 -0.403716071063 0.9996690980784 -79.07757245243 0.9996690980784 -79.07757245243 0.0255972061496 22.258557653806
8.607200000000001 0.0255959128157 -0.406219509624 0.9996691070410 -79.07944840530 0.9996691070410 -79.07944840530 0.0255968483442 22.257309868263
8.607400000000000 0.0255955535430 -0.408723690281 0.9996691160380 -79.08132443716 0.9996691160380 -79.08132443716 0.0255964891747 22.256062669364
8.607600000000000 0.0255951929018 -0.411228615466 0.9996691250696 -79.08320054825 0.9996691250696 -79.08320054825 0.0255961286368 22.254816058940
8.607800000000001 0.0255948308878 -0.413734287609 0.9996691341358 -79.08507673883 0.9996691341358 -79.08507673883 0.0255957667264 22.253570038723
8.608000000000001 0.0255944674965 -0.416240709043 0.9996691432367 -79.08695300915 0.9996691432367 -79.08695300915 0.0255954034390 22.252324610887
8.608200000000000 0.0255941027247 -0.418747881799 0.9996691523725 -79.08882935942 0.9996691523725 -79.08882935942 0.0255950387712 22.251079776847
8.608400000000001 0.0255937365677 -0.421255808325 0.9996691615432 -79.09070578989 0.9996691615432 -79.09070578989 0.0255946727185 22.249835538702
8.608600000000001 0.0255933690214 -0.423764491121 0.9996691707490 -79.09258230082 0.9996691707490 -79.09258230082 0.0255943052767 22.248591898144
8.608800000000000 0.0255930000811 -0.426273932588 0.9996691799899 -79.09445889247 0.9996691799899 -79.09445889247 0.0255939364413 22.247348857446
8.609000000000000 0.0255926297434 -0.428784134856 0.9996691892661 -79.09633556506 0.9996691892661 -79.09633556506 0.0255935662086 22.246106418081
8.609200000000001 0.0255922580037 -0.431295100440 0.9996691985777 -79.09821231884 0.9996691985777 -79.09821231884 0.0255931945742 22.244864581998
8.609400000000001 0.0255918848574 -0.433806831921 0.9996692079247 -79.10008915409 0.9996692079247 -79.10008915409 0.0255928215334 22.243623351307
8.609600000000000 0.0255915103011 -0.436319331061 0.9996692173073 -79.10196607101 0.9996692173073 -79.10196607101 0.0255924470828 22.242382727755
8.609800000000000 0.0255911343294 -0.438832601123 0.9996692267256 -79.10384306991 0.9996692267256 -79.10384306991 0.0255920712171 22.241142713397
8.610000000000001 0.0255907569390 -0.441346643831 0.9996692361796 -79.10572015100 0.9996692361796 -79.10572015100 0.0255916939329 22.239903309988
8.610200000000001 0.0255903781254 -0.443861461868 0.9996692456696 -79.10759731453 0.9996692456696 -79.10759731453 0.0255913152258 22.238664519276
8.610400000000000 0.0255899978837 -0.446377057722 0.9996692551955 -79.10947456078 0.9996692551955 -79.10947456078 0.0255909350909 22.237426343699
8.610600000000000 0.0255896162099 -0.448893433878 0.9996692647576 -79.11135189001 0.9996692647576 -79.11135189001 0.0255905535240 22.236188784890
8.610800000000001 0.0255892330994 -0.451410592801 0.9996692743559 -79.11322930246 0.9996692743559 -79.11322930246 0.0255901705208 22.234951844942
8.611000000000001 0.0255888485485 -0.453928536632 0.9996692839905 -79.11510679838 0.9996692839905 -79.11510679838 0.0255897860773 22.233715525611
8.611200000000000 0.0255884625516 -0.456447268526 0.9996692936616 -79.11698437807 0.9996692936616 -79.11698437807 0.0255894001881 22.232479829205
8.611400000000000 0.0255880751055 -0.458966790232 0.9996693033692 -79.11886204173 0.9996693033692 -79.11886204173 0.0255890128500 22.231244757282
8.611600000000001 0.0255876862054 -0.461487104425 0.9996693131134 -79.12073978965 0.9996693131134 -79.12073978965 0.0255886240582 22.230010312046
8.611800000000001 0.0255872958462 -0.464008214140 0.9996693228945 -79.12261762211 0.9996693228945 -79.12261762211 0.0255882338074 22.228776495580
8.612000000000000 0.0255869040238 -0.466530121473 0.9996693327124 -79.12449553937 0.9996693327124 -79.12449553937 0.0255878420938 22.227543309943
8.612200000000001 0.0255865107336 -0.469052829025 0.9996693425673 -79.12637354168 0.9996693425673 -79.12637354168 0.0255874489126 22.226310757068
8.612400000000001 0.0255861159713 -0.471576339477 0.9996693524593 -79.12825162932 0.9996693524593 -79.12825162932 0.0255870542595 22.225078838882
8.612600000000000 0.0255857197327 -0.474100654897 0.9996693623885 -79.13012980251 0.9996693623885 -79.13012980251 0.0255866581304 22.223847557284
8.612800000000000 0.0255853220124 -0.476625778486 0.9996693723551 -79.13200806158 0.9996693723551 -79.13200806158 0.0255862605198 22.222616914732
8.613000000000001 0.0255849228068 -0.479151712200 0.9996693823590 -79.13388640673 0.9996693823590 -79.13388640673 0.0255858614243 22.221386912760
8.613200000000001 0.0255845221101 -0.481678459381 0.9996693924006 -79.13576483832 0.9996693924006 -79.13576483832 0.0255854608379 22.220157553975
8.613400000000000 0.0255841199183 -0.484206022265 0.9996694024799 -79.13764335657 0.9996694024799 -79.13764335657 0.0255850587565 22.218928840191
8.613600000000000 0.0255837162271 -0.486734403075 0.9996694125968 -79.13952196173 0.9996694125968 -79.13952196173 0.0255846551762 22.217700773389
8.613800000000001 0.0255833110314 -0.489263604950 0.9996694227517 -79.14140065412 0.9996694227517 -79.14140065412 0.0255842500915 22.216473355822
8.614000000000001 0.0255829043269 -0.491793630226 0.9996694329447 -79.14327943397 0.9996694329447 -79.14327943397 0.0255838434984 22.215246589352
8.614200000000000 0.0255824961084 -0.494324481854 0.9996694431758 -79.14515830159 0.9996694431758 -79.14515830159 0.0255834353915 22.214020476309
8.614400000000000 0.0255820863711 -0.496856162394 0.9996694534451 -79.14703725727 0.9996694534451 -79.14703725727 0.0255830257660 22.212795019017
8.614600000000001 0.0255816751105 -0.499388674543 0.9996694637528 -79.14891630127 0.9996694637528 -79.14891630127 0.0255826146175 22.211570219237
8.614800000000001 0.0255812623225 -0.501922020616 0.9996694740989 -79.15079543383 0.9996694740989 -79.15079543383 0.0255822019418 22.210346078951
8.615000000000000 0.0255808480010 -0.504456203853 0.9996694844837 -79.15267465530 0.9996694844837 -79.15267465530 0.0255817877331 22.209122600853
8.615200000000000 0.0255804321430 -0.506991226208 0.9996694949072 -79.15455396588 0.9996694949072 -79.15455396588 0.0255813719879 22.207899786424
8.615400000000001 0.0255800147417 -0.509527091345 0.9996695053696 -79.15643336594 0.9996695053696 -79.15643336594 0.0255809546999 22.206677638453
8.615600000000001 0.0255795957932 -0.512063801510 0.9996695158709 -79.15831285573 0.9996695158709 -79.15831285573 0.0255805358648 22.205456158867
8.615800000000000 0.0255791752929 -0.514601359280 0.9996695264113 -79.16019243551 0.9996695264113 -79.16019243551 0.0255801154782 22.204235349774
8.616000000000000 0.0255787532355 -0.517139767633 0.9996695369909 -79.16207210560 0.9996695369909 -79.16207210560 0.0255796935348 22.203015213464
8.616200000000001 0.0255783296159 -0.519679029453 0.9996695476099 -79.16395186628 0.9996695476099 -79.16395186628 0.0255792700296 22.201795752143
8.616400000000001 0.0255779044306 -0.522219146839 0.9996695582682 -79.16583171778 0.9996695582682 -79.16583171778 0.0255788449588 22.200576967538
8.616600000000000 0.0255774776721 -0.524760123751 0.9996695689662 -79.16771166053 0.9996695689662 -79.16771166053 0.0255784183151 22.199358862980
8.616800000000001 0.0255770493379 -0.527301961807 0.9996695797038 -79.16959169467 0.9996695797038 -79.16959169467 0.0255779900960 22.198141439584
8.617000000000001 0.0255766194216 -0.529844664607 0.9996695904813 -79.17147182058 0.9996695904813 -79.17147182058 0.0255775602951 22.196924700115
8.617200000000000 0.0255761879187 -0.532388234708 0.9996696012987 -79.17335203853 0.9996696012987 -79.17335203853 0.0255771289079 22.195708646604
8.617400000000000 0.0255757548240 -0.534932674947 0.9996696121562 -79.17523234881 0.9996696121562 -79.17523234881 0.0255766959291 22.194493281485
8.617600000000001 0.0255753201327 -0.537477987962 0.9996696230538 -79.17711275173 0.9996696230538 -79.17711275173 0.0255762613540 22.193278607080
8.617800000000001 0.0255748838391 -0.540024177144 0.9996696339918 -79.17899324760 0.9996696339918 -79.17899324760 0.0255758251770 22.192064625587
8.618000000000000 0.0255744459385 -0.542571245179 0.9996696449703 -79.18087383670 0.9996696449703 -79.18087383670 0.0255753873931 22.190851339242
8.618200000000000 0.0255740064264 -0.545119194319 0.9996696559892 -79.18275451930 0.9996696559892 -79.18275451930 0.0255749479982 22.189638750275
8.618400000000001 0.0255735652968 -0.547668028149 0.9996696670489 -79.18463529575 0.9996696670489 -79.18463529575 0.0255745069859 22.188426861212
8.618600000000001 0.0255731225442 -0.550217749940 0.9996696781495 -79.18651616637 0.9996696781495 -79.18651616637 0.0255740643509 22.187215674377
8.618800000000000 0.0255726781647 -0.552768361589 0.9996696892909 -79.18839713139 0.9996696892909 -79.18839713139 0.0255736200894 22.186005191736
8.619000000000000 0.0255722321521 -0.555319866753 0.9996697004734 -79.19027819119 0.9996697004734 -79.19027819119 0.0255731741950 22.184795416087
8.619200000000001 0.0255717845015 -0.557872268180 0.9996697116972 -79.19215934603 0.9996697116972 -79.19215934603 0.0255727266630 22.183586349428
8.619400000000001 0.0255713352083 -0.560425568491 0.9996697229623 -79.19404059620 0.9996697229623 -79.19404059620 0.0255722774885 22.182377994091
8.619600000000000 0.0255708842663 -0.562979771070 0.9996697342688 -79.19592194205 0.9996697342688 -79.19592194205 0.0255718266657 22.181170352702
8.619800000000000 0.0255704316698 -0.565534879289 0.9996697456170 -79.19780338393 0.9996697456170 -79.19780338393 0.0255713741886 22.179963427727
8.620000000000001 0.0255699774139 -0.568090895860 0.9996697570070 -79.19968492212 0.9996697570070 -79.19968492212 0.0255709200523 22.178757221601
8.620200000000001 0.0255695214940 -0.570647823432 0.9996697684388 -79.20156655688 0.9996697684388 -79.20156655688 0.0255704642524 22.177551736163
8.620400000000000 0.0255690639046 -0.573205664937 0.9996697799125 -79.20344828855 0.9996697799125 -79.20344828855 0.0255700067833 22.176346974157
8.620600000000001 0.0255686046391 -0.575764424243 0.9996697914284 -79.20533011751 0.9996697914284 -79.20533011751 0.0255695476385 22.175142938304
8.620800000000001 0.0255681436936 -0.578324103569 0.9996698029866 -79.20721204399 0.9996698029866 -79.20721204399 0.0255690868138 22.173939630594
8.621000000000000 0.0255676810615 -0.580884706535 0.9996698145872 -79.20909406837 0.9996698145872 -79.20909406837 0.0255686243029 22.172737053817
8.621200000000000 0.0255672167383 -0.583446235874 0.9996698262303 -79.21097619093 0.9996698262303 -79.21097619093 0.0255681601012 22.171535209929
8.621400000000001 0.0255667507178 -0.586008694848 0.9996698379160 -79.21285841202 0.9996698379160 -79.21285841202 0.0255676942025 22.170334102014
8.621600000000001 0.0255662829944 -0.588572086892 0.9996698496447 -79.21474073197 0.9996698496447 -79.21474073197 0.0255672266012 22.169133732273
8.621800000000000 0.0255658135625 -0.591136414921 0.9996698614162 -79.21662315112 0.9996698614162 -79.21662315112 0.0255667572917 22.167934103410
8.622000000000000 0.0255653424179 -0.593701681477 0.9996698732308 -79.21850566970 0.9996698732308 -79.21850566970 0.0255662862698 22.166735217283
8.622200000000001 0.0255648695534 -0.596267890576 0.9996698850886 -79.22038828816 0.9996698850886 -79.22038828816 0.0255658135283 22.165537077204
8.622400000000001 0.0255643949644 -0.598835044783 0.9996698969898 -79.22227100674 0.9996698969898 -79.22227100674 0.0255653390626 22.164339685152
8.622600000000000 0.0255639186443 -0.601403147933 0.9996699089345 -79.22415382583 0.9996699089345 -79.22415382583 0.0255648628662 22.163143043960
8.622800000000000 0.0255634405884 -0.603972202528 0.9996699209228 -79.22603674573 0.9996699209228 -79.22603674573 0.0255643849342 22.161947156121
8.623000000000001 0.0255629607902 -0.606542212479 0.9996699329550 -79.22791976680 0.9996699329550 -79.22791976680 0.0255639052603 22.160752024158
8.623200000000001 0.0255624792450 -0.609113180112 0.9996699450309 -79.22980288933 0.9996699450309 -79.22980288933 0.0255634238397 22.159557650620
8.623400000000000 0.0255619959459 -0.611685109644 0.9996699571511 -79.23168611371 0.9996699571511 -79.23168611371 0.0255629406655 22.158364038191
8.623600000000000 0.0255615108884 -0.614258003529 0.9996699693153 -79.23356944022 0.9996699693153 -79.23356944022 0.0255624557332 22.157171189147
8.623800000000001 0.0255610240653 -0.616831865860 0.9996699815240 -79.23545286927 0.9996699815240 -79.23545286927 0.0255619690356 22.155979106621
8.624000000000001 0.0255605354718 -0.619406699231 0.9996699937771 -79.23733640114 0.9996699937771 -79.23733640114 0.0255614805680 22.154787792820
8.624200000000000 0.0255600451019 -0.621982507072 0.9996700060748 -79.23922003620 0.9996700060748 -79.23922003620 0.0255609903242 22.153597250639
8.624400000000001 0.0255595529493 -0.624559293001 0.9996700184174 -79.24110377480 0.9996700184174 -79.24110377480 0.0255604982982 22.152407482621
8.624600000000001 0.0255590590079 -0.627137060572 0.9996700308049 -79.24298761732 0.9996700308049 -79.24298761732 0.0255600044836 22.151218491565
8.624800000000000 0.0255585632735 -0.629715812104 0.9996700432374 -79.24487156398 0.9996700432374 -79.24487156398 0.0255595088763 22.150030279506
8.625000000000000 0.0255580657378 -0.632295552128 0.9996700557151 -79.24675561529 0.9996700557151 -79.24675561529 0.0255590114681 22.148842850142
8.625200000000001 0.0255575663971 -0.634876283063 0.9996700682383 -79.24863977146 0.9996700682383 -79.24863977146 0.0255585122551 22.147656205072
8.625400000000001 0.0255570652441 -0.637458008638 0.9996700808068 -79.25052403291 0.9996700808068 -79.25052403291 0.0255580112303 22.146470347811
8.625600000000000 0.0255565622723 -0.640040732843 0.9996700934212 -79.25240840003 0.9996700934212 -79.25240840003 0.0255575083870 22.145285280939
8.625800000000000 0.0255560574765 -0.642624458544 0.9996701060813 -79.25429287313 0.9996701060813 -79.25429287313 0.0255570037199 22.144101007075
8.626000000000001 0.0255555508503 -0.645209189386 0.9996701187873 -79.25617745258 0.9996701187873 -79.25617745258 0.0255564972228 22.142917528974
8.626200000000001 0.0255550423880 -0.647794928436 0.9996701315394 -79.25806213871 0.9996701315394 -79.25806213871 0.0255559888900 22.141734849403
8.626400000000000 0.0255545320832 -0.650381679500 0.9996701443378 -79.25994693190 0.9996701443378 -79.25994693190 0.0255554787150 22.140552971102
8.626600000000000 0.0255540199294 -0.652969446313 0.9996701571827 -79.26183183253 0.9996701571827 -79.26183183253 0.0255549666913 22.139371896884
8.626800000000001 0.0255535059204 -0.655558232244 0.9996701700741 -79.26371684097 0.9996701700741 -79.26371684097 0.0255544528128 22.138191629720
8.627000000000001 0.0255529900512 -0.658148040239 0.9996701830122 -79.26560195751 0.9996701830122 -79.26560195751 0.0255539370744 22.137012171858
8.627200000000000 0.0255524723139 -0.660738874651 0.9996701959972 -79.26748718261 0.9996701959972 -79.26748718261 0.0255534194682 22.135833526921
8.627400000000000 0.0255519527035 -0.663330738536 0.9996702090293 -79.26937251657 0.9996702090293 -79.26937251657 0.0255528999893 22.134655696981
8.627600000000001 0.0255514312130 -0.665923635623 0.9996702221085 -79.27125795980 0.9996702221085 -79.27125795980 0.0255523786306 22.133478685380
8.627800000000001 0.0255509078354 -0.668517569837 0.9996702352350 -79.27314351270 0.9996702352350 -79.27314351270 0.0255518553852 22.132302495247
8.628000000000000 0.0255503825666 -0.671112543889 0.9996702484091 -79.27502917553 0.9996702484091 -79.27502917553 0.0255513302489 22.131127128363
8.628200000000001 0.0255498553977 -0.673708562337 0.9996702616308 -79.27691494879 0.9996702616308 -79.27691494879 0.0255508032130 22.129952588865
8.628400000000001 0.0255493263239 -0.676305628317 0.9996702749003 -79.27880083279 0.9996702749003 -79.27880083279 0.0255502742724 22.128778878852
8.628600000000000 0.0255487953379 -0.678903745762 0.9996702882178 -79.28068682793 0.9996702882178 -79.28068682793 0.0255497434199 22.127606001673
8.628800000000000 0.0255482624334 -0.681502918344 0.9996703015834 -79.28257293460 0.9996703015834 -79.28257293460 0.0255492106494 22.126433960018
8.629000000000001 0.0255477276042 -0.684103149453 0.9996703149973 -79.28445915315 0.9996703149973 -79.28445915315 0.0255486759545 22.125262756920
8.629200000000001 0.0255471908440 -0.686704442874 0.9996703284597 -79.28634548397 0.9996703284597 -79.28634548397 0.0255481393289 22.124092395123
8.629400000000000 0.0255466521454 -0.689306802603 0.9996703419706 -79.28823192747 0.9996703419706 -79.28823192747 0.0255476007653 22.122922878004
8.629600000000000 0.0255461115022 -0.691910232211 0.9996703555304 -79.29011848403 0.9996703555304 -79.29011848403 0.0255470602574 22.121754208358
8.629800000000001 0.0255455689073 -0.694514735853 0.9996703691391 -79.29200515406 0.9996703691391 -79.29200515406 0.0255465177982 22.120586389274
8.630000000000001 0.0255450243551 -0.697120316519 0.9996703827969 -79.29389193789 0.9996703827969 -79.29389193789 0.0255459733822 22.119419423537
8.630200000000000 0.0255444778385 -0.699726978482 0.9996703965040 -79.29577883594 0.9996703965040 -79.29577883594 0.0255454270020 22.118253314127
8.630400000000000 0.0255439293505 -0.702334725347 0.9996704102604 -79.29766584862 0.9996704102604 -79.29766584862 0.0255448786509 22.117088064551
8.630600000000001 0.0255433788842 -0.704943561389 0.9996704240665 -79.29955297633 0.9996704240665 -79.29955297633 0.0255443283217 22.115923677588
8.630800000000001 0.0255428264329 -0.707553490491 0.9996704379224 -79.30144021947 0.9996704379224 -79.30144021947 0.0255437760079 22.114760156281
8.631000000000000 0.0255422719900 -0.710164515984 0.9996704518282 -79.30332757843 0.9996704518282 -79.30332757843 0.0255432217030 22.113597503834
8.631200000000000 0.0255417155491 -0.712776641890 0.9996704657841 -79.30521505358 0.9996704657841 -79.30521505358 0.0255426654003 22.112435723074
8.631400000000001 0.0255411571020 -0.715389872529 0.9996704797903 -79.30710264539 0.9996704797903 -79.30710264539 0.0255421070919 22.111274817708
8.631600000000001 0.0255405966431 -0.718004211420 0.9996704938469 -79.30899035422 0.9996704938469 -79.30899035422 0.0255415467720 22.110114790201
8.631800000000000 0.0255400341649 -0.720619662578 0.9996705079542 -79.31087818048 0.9996705079542 -79.31087818048 0.0255409844332 22.108955644117
8.632000000000000 0.0255394696605 -0.723236230131 0.9996705221122 -79.31276612459 0.9996705221122 -79.31276612459 0.0255404200686 22.107797382397
8.632200000000001 0.0255389031230 -0.725853917847 0.9996705363212 -79.31465418695 0.9996705363212 -79.31465418695 0.0255398536713 22.106640008325
8.632400000000001 0.0255383345448 -0.728472730160 0.9996705505813 -79.31654236801 0.9996705505813 -79.31654236801 0.0255392852335 22.105483525261
8.632600000000000 0.0255377639199 -0.731092670345 0.9996705648927 -79.31843066812 0.9996705648927 -79.31843066812 0.0255387147496 22.104327935985
8.632800000000001 0.0255371912395 -0.733713743471 0.9996705792556 -79.32031908780 0.9996705792556 -79.32031908780 0.0255381422106 22.103173244462
8.633000000000001 0.0255366164982 -0.736335952639 0.9996705936702 -79.32220762736 0.9996705936702 -79.32220762736 0.0255375676109 22.102019453231
8.633200000000000 0.0255360396884 -0.738959302348 0.9996706081366 -79.32409628726 0.9996706081366 -79.32409628726 0.0255369909432 22.100866565499
8.633400000000000 0.0255354608016 -0.741583797066 0.9996706226550 -79.32598506798 0.9996706226550 -79.32598506798 0.0255364121989 22.099714585355
8.633600000000001 0.0255348798322 -0.744209440250 0.9996706372256 -79.32787396986 0.9996706372256 -79.32787396986 0.0255358313724 22.098563515204
8.633800000000001 0.0255342967723 -0.746836236199 0.9996706518486 -79.32976299337 0.9996706518486 -79.32976299337 0.0255352484558 22.097413358906
8.634000000000000 0.0255337116151 -0.749464189127 0.9996706665241 -79.33165213890 0.9996706665241 -79.33165213890 0.0255346634421 22.096264119229
8.634200000000000 0.0255331243507 -0.752093304202 0.9996706812523 -79.33354140703 0.9996706812523 -79.33354140703 0.0255340763218 22.095115800814
8.634400000000001 0.0255325349755 -0.754723583957 0.9996706960335 -79.33543079798 0.9996706960335 -79.33543079798 0.0255334870911 22.093968405176
8.634600000000001 0.0255319434800 -0.757355033375 0.9996707108677 -79.33732031229 0.9996707108677 -79.33732031229 0.0255328957405 22.092821936893
8.634800000000000 0.0255313498564 -0.759987657138 0.9996707257552 -79.33920995044 0.9996707257552 -79.33920995044 0.0255323022621 22.091676399316
8.635000000000000 0.0255307540994 -0.762621458275 0.9996707406961 -79.34109971273 0.9996707406961 -79.34109971273 0.0255317066508 22.090531794918
8.635200000000001 0.0255301561983 -0.765256442881 0.9996707556908 -79.34298959980 0.9996707556908 -79.34298959980 0.0255311088957 22.089388128406
8.635400000000001 0.0255295561478 -0.767892613755 0.9996707707392 -79.34487961194 0.9996707707392 -79.34487961194 0.0255305089917 22.088245402501
8.635600000000000 0.0255289539397 -0.770529976016 0.9996707858417 -79.34676974965 0.9996707858417 -79.34676974965 0.0255299069305 22.087103620520
8.635800000000000 0.0255283495664 -0.773168533513 0.9996708009984 -79.34866001336 0.9996708009984 -79.34866001336 0.0255293027045 22.085962786405
8.636000000000001 0.0255277430200 -0.775808291000 0.9996708162094 -79.35055040356 0.9996708162094 -79.35055040356 0.0255286963057 22.084822903462
8.636200000000001 0.0255271342935 -0.778449252452 0.9996708314750 -79.35244092063 0.9996708314750 -79.35244092063 0.0255280877274 22.083683974899
8.636400000000000 0.0255265233778 -0.781091423024 0.9996708467955 -79.35433156512 0.9996708467955 -79.35433156512 0.0255274769602 22.082546004829
8.636600000000001 0.0255259102664 -0.783734806486 0.9996708621708 -79.35622233742 0.9996708621708 -79.35622233742 0.0255268639978 22.081408996285
8.636800000000001 0.0255252949514 -0.786379407245 0.9996708776013 -79.35811323798 0.9996708776013 -79.35811323798 0.0255262488321 22.080272952928
8.637000000000000 0.0255246774239 -0.789025230399 0.9996708930872 -79.36000426732 0.9996708930872 -79.36000426732 0.0255256314544 22.079137878720
8.637200000000000 0.0255240576769 -0.791672280116 0.9996709086287 -79.36189542587 0.9996709086287 -79.36189542587 0.0255250118575 22.078003776757
8.637400000000001 0.0255234357020 -0.794320560900 0.9996709242258 -79.36378671410 0.9996709242258 -79.36378671410 0.0255243900334 22.076870650982
8.637600000000001 0.0255228114920 -0.796970077108 0.9996709398789 -79.36567813245 0.9996709398789 -79.36567813245 0.0255237659744 22.075738504708
8.637800000000000 0.0255221850378 -0.799620833773 0.9996709555881 -79.36756968145 0.9996709555881 -79.36756968145 0.0255231396717 22.074607342010
8.638000000000000 0.0255215563322 -0.802272834942 0.9996709713536 -79.36946136152 0.9996709713536 -79.36946136152 0.0255225111181 22.073477166358
8.638200000000001 0.0255209253672 -0.804926085462 0.9996709871756 -79.37135317313 0.9996709871756 -79.37135317313 0.0255218803054 22.072347981121
8.638400000000001 0.0255202921341 -0.807580590180 0.9996710030544 -79.37324511680 0.9996710030544 -79.37324511680 0.0255212472250 22.071219790419
8.638600000000000 0.0255196566242 -0.810236353921 0.9996710189901 -79.37513719303 0.9996710189901 -79.37513719303 0.0255206118685 22.070092598078
8.638800000000000 0.0255190188313 -0.812893380459 0.9996710349829 -79.37702940219 0.9996710349829 -79.37702940219 0.0255199742291 22.068966407170
8.639000000000001 0.0255183787449 -0.815551675482 0.9996710510331 -79.37892174489 0.9996710510331 -79.37892174489 0.0255193342969 22.067841222356
8.639200000000001 0.0255177363585 -0.818211243046 0.9996710671407 -79.38081422151 0.9996710671407 -79.38081422151 0.0255186920650 22.066717046563
8.639400000000000 0.0255170916624 -0.820872088436 0.9996710833061 -79.38270683263 0.9996710833061 -79.38270683263 0.0255180475240 22.065593884221
8.639600000000000 0.0255164446487 -0.823534216436 0.9996710995295 -79.38459957872 0.9996710995295 -79.38459957872 0.0255174006657 22.064471738946
8.639800000000001 0.0255157953094 -0.826197631334 0.9996711158110 -79.38649246023 0.9996711158110 -79.38649246023 0.0255167514823 22.063350614476
8.640000000000001 0.0255151436358 -0.828862338224 0.9996711321509 -79.38838547767 0.9996711321509 -79.38838547767 0.0255160999651 22.062230514682
8.640200000000000 0.0255144896188 -0.831528342193 0.9996711485492 -79.39027863160 0.9996711485492 -79.39027863160 0.0255154461049 22.061111443846