! Sonnet Data File
! From: emgraph Version : 16.52
! From Emgraph Data: 171117_Xmon_fullysym_trail
! Data File Written: 11/22/2017 16:06:06
!< HDATE 11/22/2017 14:47:12
!< MDATE 11/22/2017 14:49:19
!< PARAMS
!< Lj = 11.0
!< Width = 10.0
!< Gap = 1.0
!< END PARAMS
# GHZ S MA R 50.90000
8.660000000000000 0.0221278287139 -6.969274832449 0.9997510523029 -79.69974610676 0.9997510523025 -79.69974610675 0.0221297689871 27.584952154545
!< P1 F=8.66 Eeff=(6.44844023 -2.9799e-5) Z0=(50.9085949 1.17006e-4) R=0.0 C=0.0 
!< P2 F=8.66 Eeff=(6.44844012 -2.9799e-5) Z0=(50.9086403 1.17006e-4) R=0.0 C=0.0 
8.660025000000001 0.0221267597558 -6.970630231325 0.9997510751413 -79.70004321183 0.9997510751413 -79.70004321183 0.0221287007186 27.585717808731
8.660050000000000 0.0221256897660 -6.971986788130 0.9997510979921 -79.70034038051 0.9997510979921 -79.70034038051 0.0221276314235 27.586484551326
8.660075000000001 0.0221246187609 -6.973344540540 0.9997511208634 -79.70063761220 0.9997511208634 -79.70063761220 0.0221265611141 27.587252368760
8.660100000000000 0.0221235467284 -6.974703498453 0.9997511437541 -79.70093490764 0.9997511437541 -79.70093490764 0.0221254897791 27.588021275259
8.660125000000001 0.0221224736781 -6.976063657971 0.9997511666658 -79.70123226628 0.9997511666658 -79.70123226628 0.0221244174268 27.588791259969
8.660150000000000 0.0221213996077 -6.977425015735 0.9997511895965 -79.70152968820 0.9997511895965 -79.70152968820 0.0221233440565 27.589562328733
8.660175000000001 0.0221203245150 -6.978787578130 0.9997512125476 -79.70182717359 0.9997512125476 -79.70182717359 0.0221222696648 27.590334481166
8.660200000000000 0.0221192483900 -6.980151355508 0.9997512355190 -79.70212472305 0.9997512355190 -79.70212472305 0.0221211942420 27.591107728141
8.660225000000001 0.0221181712444 -6.981516335913 0.9997512585101 -79.70242233585 0.9997512585101 -79.70242233585 0.0221201178002 27.591882060450
8.660250000000001 0.0221170930635 -6.982882535578 0.9997512815218 -79.70272001293 0.9997512815218 -79.70272001293 0.0221190403242 27.592657490252
8.660275000000000 0.0221160138568 -6.984249944760 0.9997513045531 -79.70301775367 0.9997513045531 -79.70301775367 0.0221179618240 27.593434011945
8.660300000000001 0.0221149336084 -6.985618579341 0.9997513276047 -79.70331555906 0.9997513276047 -79.70331555906 0.0221168822836 27.594211638847
8.660325000000000 0.0221138523318 -6.986988428706 0.9997513506768 -79.70361342831 0.9997513506768 -79.70361342831 0.0221158017159 27.594990358649
8.660350000000001 0.0221127700100 -6.988359508791 0.9997513737689 -79.70391136242 0.9997513737689 -79.70391136242 0.0221147201048 27.595770189705
8.660375000000000 0.0221116866542 -6.989731810728 0.9997513968818 -79.70420936074 0.9997513968818 -79.70420936074 0.0221136374606 27.596551119560
8.660400000000001 0.0221106022643 -6.991105332783 0.9997514200145 -79.70450742325 0.9997514200145 -79.70450742325 0.0221125537838 27.597333151015
8.660425000000000 0.0221095168189 -6.992480098472 0.9997514431679 -79.70480555129 0.9997514431679 -79.70480555129 0.0221114690530 27.598116303430
8.660450000000001 0.0221084303396 -6.993856085883 0.9997514663411 -79.70510374352 0.9997514663411 -79.70510374352 0.0221103832898 27.598900558923
8.660475000000000 0.0221073428088 -6.995233314537 0.9997514895350 -79.70540200104 0.9997514895350 -79.70540200104 0.0221092964763 27.599685932545
8.660500000000001 0.0221062542342 -6.996611778568 0.9997515127500 -79.70570032338 0.9997515127500 -79.70570032338 0.0221082086199 27.600472416540
8.660525000000000 0.0221051646055 -6.997991487300 0.9997515359854 -79.70599871117 0.9997515359854 -79.70599871117 0.0221071197110 27.601260023957
8.660550000000001 0.0221040739222 -6.999372439785 0.9997515592408 -79.70629716443 0.9997515592408 -79.70629716443 0.0221060297493 27.602048755283
8.660575000000000 0.0221029821881 -7.000754635055 0.9997515825168 -79.70659568294 0.9997515825168 -79.70659568294 0.0221049387380 27.602838606402
8.660600000000001 0.0221018894034 -7.002138072948 0.9997516058132 -79.70689426670 0.9997516058132 -79.70689426670 0.0221038466775 27.603629578631
8.660625000000001 0.0221007955521 -7.003522772402 0.9997516291309 -79.70719291669 0.9997516291309 -79.70719291669 0.0221027535516 27.604421686585
8.660650000000000 0.0220997006469 -7.004908718822 0.9997516524689 -79.70749163213 0.9997516524689 -79.70749163213 0.0221016593733 27.605214919821
8.660675000000001 0.0220986046804 -7.006295920955 0.9997516758278 -79.70779041348 0.9997516758278 -79.70779041348 0.0221005641351 27.606009284501
8.660700000000000 0.0220975076426 -7.007684389104 0.9997516992072 -79.70808926135 0.9997516992072 -79.70808926135 0.0220994678271 27.606804792501
8.660725000000001 0.0220964095487 -7.009074109278 0.9997517226073 -79.70838817483 0.9997517226073 -79.70838817483 0.0220983704643 27.607601429110
8.660750000000000 0.0220953103785 -7.010465102210 0.9997517460283 -79.70868715513 0.9997517460283 -79.70868715513 0.0220972720269 27.608399214238
8.660775000000001 0.0220942101485 -7.011857353098 0.9997517694704 -79.70898620129 0.9997517694704 -79.70898620129 0.0220961725306 27.609198131885
8.660800000000000 0.0220931088414 -7.013250877759 0.9997517929330 -79.70928531433 0.9997517929330 -79.70928531433 0.0220950719590 27.609998200185
8.660825000000001 0.0220920064656 -7.014645670152 0.9997518164169 -79.70958449376 0.9997518164169 -79.70958449376 0.0220939703199 27.610799410267
8.660850000000000 0.0220909030099 -7.016041740708 0.9997518399213 -79.70988374025 0.9997518399213 -79.70988374025 0.0220928676027 27.611601775151
8.660875000000001 0.0220897984824 -7.017439083925 0.9997518634469 -79.71018305333 0.9997518634469 -79.71018305333 0.0220917638149 27.612405287163
8.660900000000000 0.0220886928705 -7.018837713533 0.9997518869940 -79.71048243379 0.9997518869940 -79.71048243379 0.0220906589436 27.613209957293
8.660925000000001 0.0220875861817 -7.020237617949 0.9997519105612 -79.71078188112 0.9997519105612 -79.71078188112 0.0220895529978 27.614015781430
8.660950000000000 0.0220864784052 -7.021638816117 0.9997519341507 -79.71108139605 0.9997519341507 -79.71108139605 0.0220884459647 27.614822767553
8.660975000000001 0.0220853695499 -7.023041292323 0.9997519577602 -79.71138097797 0.9997519577602 -79.71138097797 0.0220873378552 27.615630911420
8.661000000000001 0.0220842596011 -7.024445067356 0.9997519813914 -79.71168062785 0.9997519813914 -79.71168062785 0.0220862286532 27.616440224784
8.661025000000000 0.0220831485667 -7.025850130470 0.9997520050435 -79.71198034516 0.9997520050435 -79.71198034516 0.0220851183673 27.617250701152
8.661050000000001 0.0220820364433 -7.027256487963 0.9997520287169 -79.71228013013 0.9997520287169 -79.71228013013 0.0220840069937 27.618062345311
8.661075000000000 0.0220809232241 -7.028664147339 0.9997520524118 -79.71257998320 0.9997520524118 -79.71257998320 0.0220828945257 27.618875162875
8.661100000000001 0.0220798089144 -7.030073102194 0.9997520761276 -79.71287990402 0.9997520761276 -79.71287990402 0.0220817809689 27.619689150888
8.661125000000000 0.0220786935019 -7.031483368386 0.9997520998653 -79.71317989336 0.9997520998653 -79.71317989336 0.0220806663105 27.620504320119
8.661150000000001 0.0220775769923 -7.032894939040 0.9997521236242 -79.71347995088 0.9997521236242 -79.71347995088 0.0220795505565 27.621320666697
8.661175000000000 0.0220764593813 -7.034307818268 0.9997521474043 -79.71378007683 0.9997521474043 -79.71378007683 0.0220784337028 27.622138195451
8.661200000000001 0.0220753406680 -7.035722009672 0.9997521712061 -79.71408027129 0.9997521712061 -79.71408027129 0.0220773157481 27.622956906827
8.661225000000000 0.0220742208534 -7.037137510950 0.9997521950289 -79.71438053418 0.9997521950289 -79.71438053418 0.0220761966938 27.623776801892
8.661250000000001 0.0220730999215 -7.038554340427 0.9997522188735 -79.71468086649 0.9997522188735 -79.71468086649 0.0220750765238 27.624597895727
8.661275000000000 0.0220719778885 -7.039972483656 0.9997522427400 -79.71498126726 0.9997522427400 -79.71498126726 0.0220739552537 27.625420172446
8.661300000000001 0.0220708547398 -7.041391952835 0.9997522666275 -79.71528173735 0.9997522666275 -79.71528173735 0.0220728328699 27.626243648749
8.661325000000000 0.0220697304817 -7.042812745808 0.9997522905373 -79.71558227640 0.9997522905373 -79.71558227640 0.0220717093777 27.627068316706
8.661350000000001 0.0220686051149 -7.044234857758 0.9997523144677 -79.71588288436 0.9997523144677 -79.71588288436 0.0220705847790 27.627894179778
8.661375000000001 0.0220674786242 -7.045658311005 0.9997523384208 -79.71618356218 0.9997523384208 -79.71618356218 0.0220694590574 27.628721248957
8.661400000000000 0.0220663510069 -7.047083104082 0.9997523623953 -79.71648431000 0.9997523623953 -79.71648431000 0.0220683322109 27.629549529582
8.661425000000001 0.0220652222735 -7.048509228800 0.9997523863913 -79.71678512721 0.9997523863913 -79.71678512721 0.0220672042500 27.630379012956
8.661450000000000 0.0220640924167 -7.049936693746 0.9997524104093 -79.71708601426 0.9997524104093 -79.71708601426 0.0220660751671 27.631209705550
8.661475000000001 0.0220629614328 -7.051365502860 0.9997524344494 -79.71738697136 0.9997524344494 -79.71738697136 0.0220649449586 27.632041610634
8.661500000000000 0.0220618293244 -7.052795655827 0.9997524585117 -79.71768799839 0.9997524585117 -79.71768799839 0.0220638136267 27.632874726518
8.661525000000001 0.0220606960855 -7.054227155819 0.9997524825952 -79.71798909567 0.9997524825952 -79.71798909567 0.0220626811664 27.633709062135
8.661550000000000 0.0220595617095 -7.055660013480 0.9997525067011 -79.71829026365 0.9997525067011 -79.71829026365 0.0220615475704 27.634544621871
8.661575000000001 0.0220584261992 -7.057094224689 0.9997525308286 -79.71859150214 0.9997525308286 -79.71859150214 0.0220604128420 27.635381405266
8.661600000000000 0.0220572895565 -7.058529788665 0.9997525549780 -79.71889281104 0.9997525549780 -79.71889281104 0.0220592769827 27.636219410479
8.661625000000001 0.0220561517769 -7.059966713244 0.9997525791502 -79.71919419064 0.9997525791502 -79.71919419064 0.0220581399876 27.637058640834
8.661650000000000 0.0220550128518 -7.061405006002 0.9997526033447 -79.71949564145 0.9997526033447 -79.71949564145 0.0220570018485 27.637899105868
8.661675000000001 0.0220538727865 -7.062844659644 0.9997526275604 -79.71979716315 0.9997526275604 -79.71979716315 0.0220558625714 27.638740803821
8.661700000000000 0.0220527315767 -7.064285682528 0.9997526517986 -79.72009875602 0.9997526517986 -79.72009875602 0.0220547221511 27.639583736895
8.661725000000001 0.0220515892201 -7.065728078286 0.9997526760594 -79.72040042020 0.9997526760594 -79.72040042020 0.0220535805854 27.640427907510
8.661750000000001 0.0220504457125 -7.067171848541 0.9997527003418 -79.72070215594 0.9997527003418 -79.72070215594 0.0220524378708 27.641273322895
8.661775000000000 0.0220493010483 -7.068617003367 0.9997527246470 -79.72100396361 0.9997527246470 -79.72100396361 0.0220512940008 27.642119986551
8.661800000000001 0.0220481552383 -7.070063531109 0.9997527489746 -79.72130584254 0.9997527489746 -79.72130584254 0.0220501489866 27.642967889368
8.661825000000000 0.0220470082687 -7.071511446744 0.9997527733248 -79.72160779359 0.9997527733248 -79.72160779359 0.0220490028143 27.643817044937
8.661850000000001 0.0220458601472 -7.072960741523 0.9997527976967 -79.72190981627 0.9997527976967 -79.72190981627 0.0220478554920 27.644667448613
8.661875000000000 0.0220447108577 -7.074411434798 0.9997528220917 -79.72221191159 0.9997528220917 -79.72221191159 0.0220467070031 27.645519113310
8.661900000000001 0.0220435604095 -7.075863515352 0.9997528465085 -79.72251407897 0.9997528465085 -79.72251407897 0.0220455573576 27.646372033880
8.661925000000000 0.0220424087920 -7.077316999340 0.9997528709488 -79.72281631909 0.9997528709488 -79.72281631909 0.0220444065437 27.647226217714
8.661950000000001 0.0220412560144 -7.078771872639 0.9997528954109 -79.72311863135 0.9997528954109 -79.72311863135 0.0220432545720 27.648081660089
8.661975000000000 0.0220401020657 -7.080228151810 0.9997529198962 -79.72342101647 0.9997529198962 -79.72342101647 0.0220421014302 27.648938369480
8.662000000000001 0.0220389469395 -7.081685840254 0.9997529444037 -79.72372347481 0.9997529444037 -79.72372347481 0.0220409471131 27.649796354601
8.662025000000000 0.0220377906416 -7.083144936560 0.9997529689344 -79.72402600605 0.9997529689344 -79.72402600605 0.0220397916255 27.650655608790
8.662050000000001 0.0220366331712 -7.084605438307 0.9997529934871 -79.72432861022 0.9997529934871 -79.72432861022 0.0220386349676 27.651516135746
8.662075000000000 0.0220354745227 -7.086067355983 0.9997530180632 -79.72463128769 0.9997530180632 -79.72463128769 0.0220374771328 27.652377939244
8.662100000000001 0.0220343146963 -7.087530687863 0.9997530426619 -79.72493403844 0.9997530426619 -79.72493403844 0.0220363181219 27.653241021329
8.662125000000001 0.0220331536799 -7.088995447835 0.9997530672836 -79.72523686320 0.9997530672836 -79.72523686320 0.0220351579227 27.654105393497
8.662150000000000 0.0220319914796 -7.090461628799 0.9997530919280 -79.72553976162 0.9997530919280 -79.72553976162 0.0220339965413 27.654971049944
8.662175000000001 0.0220308280936 -7.091929235944 0.9997531165957 -79.72584273382 0.9997531165957 -79.72584273382 0.0220328339756 27.655837993708
8.662200000000000 0.0220296635236 -7.093398266228 0.9997531412859 -79.72614577968 0.9997531412859 -79.72614577968 0.0220316702280 27.656706225031
8.662225000000001 0.0220284977556 -7.094868735693 0.9997531659993 -79.72644890007 0.9997531659993 -79.72644890007 0.0220305052841 27.657575756262
8.662250000000000 0.0220273307961 -7.096340638498 0.9997531907357 -79.72675209461 0.9997531907357 -79.72675209461 0.0220293391501 27.658446582737
8.662275000000001 0.0220261626374 -7.097813984116 0.9997532154955 -79.72705536377 0.9997532154955 -79.72705536377 0.0220281718187 27.659318711884
8.662300000000000 0.0220249932870 -7.099288764235 0.9997532402784 -79.72735870708 0.9997532402784 -79.72735870708 0.0220270032972 27.660192137207
8.662325000000001 0.0220238227274 -7.100764997251 0.9997532650841 -79.72766212563 0.9997532650841 -79.72766212563 0.0220258335684 27.661066877612
8.662350000000000 0.0220226509652 -7.102242678909 0.9997532899132 -79.72796561902 0.9997532899132 -79.72796561902 0.0220246626388 27.661942926711
8.662375000000001 0.0220214780002 -7.103721810406 0.9997533147662 -79.72826918727 0.9997533147662 -79.72826918727 0.0220234905076 27.662820282698
8.662400000000000 0.0220203038292 -7.105202391915 0.9997533396415 -79.72857283056 0.9997533396415 -79.72857283056 0.0220223171729 27.663698953841
8.662425000000001 0.0220191284382 -7.106684444243 0.9997533645409 -79.72887654979 0.9997533645409 -79.72887654979 0.0220211426193 27.664578951364
8.662450000000000 0.0220179518420 -7.108167947803 0.9997533894630 -79.72918034401 0.9997533894630 -79.72918034401 0.0220199668628 27.665460263637
8.662475000000001 0.0220167740284 -7.109652919724 0.9997534144089 -79.72948421400 0.9997534144089 -79.72948421400 0.0220187898905 27.666342901421
8.662500000000001 0.0220155949972 -7.111139360376 0.9997534393787 -79.72978815980 0.9997534393787 -79.72978815980 0.0220176117018 27.667226864676
8.662525000000000 0.0220144147491 -7.112627268288 0.9997534643716 -79.73009218133 0.9997534643716 -79.73009218133 0.0220164322983 27.668112155877
8.662550000000001 0.0220132332741 -7.114116655018 0.9997534893880 -79.73039627922 0.9997534893880 -79.73039627922 0.0220152516699 27.668998784864
8.662575000000000 0.0220120505762 -7.115607518118 0.9997535144282 -79.73070045324 0.9997535144282 -79.73070045324 0.0220140698201 27.669886747257
8.662600000000001 0.0220108666512 -7.117099862097 0.9997535394919 -79.73100470364 0.9997535394919 -79.73100470364 0.0220128867452 27.670776049062
8.662625000000000 0.0220096814947 -7.118593693067 0.9997535645795 -79.73130903071 0.9997535645795 -79.73130903071 0.0220117024403 27.671666694520
8.662650000000001 0.0220084951140 -7.120089001754 0.9997535896901 -79.73161343398 0.9997535896901 -79.73161343398 0.0220105169134 27.672558678439
8.662675000000000 0.0220073074898 -7.121585812841 0.9997536148254 -79.73191791467 0.9997536148254 -79.73191791467 0.0220093301444 27.673452017593
8.662700000000001 0.0220061186287 -7.123084119548 0.9997536399849 -79.73222247237 0.9997536399849 -79.73222247237 0.0220081421400 27.674346707150
8.662725000000000 0.0220049285303 -7.124583918873 0.9997536651669 -79.73252710708 0.9997536651669 -79.73252710708 0.0220069529009 27.675242751974
8.662750000000001 0.0220037371965 -7.126085215490 0.9997536903739 -79.73283181874 0.9997536903739 -79.73283181874 0.0220057624275 27.676140145735
8.662775000000000 0.0220025446089 -7.127588022925 0.9997537156037 -79.73313660843 0.9997537156037 -79.73313660843 0.0220045707030 27.677038910966
8.662800000000001 0.0220013507864 -7.129092329312 0.9997537408586 -79.73344147505 0.9997537408586 -79.73344147505 0.0220033777444 27.677939026388
8.662825000000000 0.0220001556989 -7.130598163099 0.9997537661375 -79.73374642041 0.9997537661375 -79.73374642041 0.0220021835230 27.678840524126
8.662850000000001 0.0219989593719 -7.132105498518 0.9997537914401 -79.73405144296 0.9997537914401 -79.73405144296 0.0220009880639 27.679743380241
8.662875000000000 0.0219977617830 -7.133614358214 0.9997538167666 -79.73435654407 0.9997538167666 -79.73435654407 0.0219997913452 27.680647617203
8.662900000000000 0.0219965629442 -7.135124734342 0.9997538421174 -79.73466172304 0.9997538421174 -79.73466172304 0.0219985933781 27.681553223878
8.662925000000001 0.0219953628466 -7.136636634598 0.9997538674925 -79.73496698039 0.9997538674925 -79.73496698039 0.0219973941541 27.682460208962
8.662950000000000 0.0219941614776 -7.138150073134 0.9997538928919 -79.73527231692 0.9997538928919 -79.73527231692 0.0219961936605 27.683368585754
8.662975000000001 0.0219929588540 -7.139665034961 0.9997539183158 -79.73557773159 0.9997539183158 -79.73557773159 0.0219949919140 27.684278338527
8.663000000000000 0.0219917549537 -7.141181539688 0.9997539437632 -79.73588322575 0.9997539437632 -79.73588322575 0.0219937888933 27.685189491502
8.663025000000001 0.0219905497863 -7.142699583864 0.9997539692363 -79.73618879885 0.9997539692363 -79.73618879885 0.0219925846066 27.686102031131
8.663050000000000 0.0219893433616 -7.144219153909 0.9997539947327 -79.73649445027 0.9997539947327 -79.73649445027 0.0219913790649 27.687015954759
8.663075000000001 0.0219881356500 -7.145740283308 0.9997540202542 -79.73680018183 0.9997540202542 -79.73680018183 0.0219901722380 27.687931287206
8.663100000000000 0.0219869266611 -7.147262962851 0.9997540458003 -79.73710599295 0.9997540458003 -79.73710599295 0.0219889641357 27.688848021967
8.663125000000001 0.0219857163932 -7.148787195518 0.9997540713711 -79.73741188375 0.9997540713711 -79.73741188375 0.0219877547561 27.689766160776
8.663150000000000 0.0219845048470 -7.150312979308 0.9997540969660 -79.73771785417 0.9997540969660 -79.73771785417 0.0219865441005 27.690685705140
8.663175000000001 0.0219832920111 -7.151840326800 0.9997541225851 -79.73802390492 0.9997541225851 -79.73802390492 0.0219853321574 27.691606666344
8.663200000000000 0.0219820778911 -7.153369238517 0.9997541482301 -79.73833003569 0.9997541482301 -79.73833003569 0.0219841189314 27.692529037449
8.663225000000001 0.0219808624790 -7.154899716885 0.9997541738991 -79.73863624693 0.9997541738991 -79.73863624693 0.0219829044157 27.693452829563
8.663250000000000 0.0219796457737 -7.156431767989 0.9997541995932 -79.73894253875 0.9997541995932 -79.73894253875 0.0219816886085 27.694378043456
8.663275000000001 0.0219784277806 -7.157965385433 0.9997542253118 -79.73924891081 0.9997542253118 -79.73924891081 0.0219804715155 27.695304675375
8.663300000000001 0.0219772084905 -7.159500579894 0.9997542510555 -79.73955536367 0.9997542510555 -79.73955536367 0.0219792531274 27.696232733382
8.663325000000000 0.0219759878913 -7.161037366950 0.9997542768244 -79.73986189810 0.9997542768244 -79.73986189810 0.0219780334321 27.697162231994
8.663350000000001 0.0219747659948 -7.162575729729 0.9997543026173 -79.74016851335 0.9997543026173 -79.74016851335 0.0219768124420 27.698093160793
8.663375000000000 0.0219735427804 -7.164115696994 0.9997543284365 -79.74047521073 0.9997543284365 -79.74047521073 0.0219755901352 27.699025536726
8.663400000000001 0.0219723182722 -7.165657241956 0.9997543542803 -79.74078198873 0.9997543542803 -79.74078198873 0.0219743665369 27.699959341541
8.663425000000000 0.0219710924482 -7.167200386540 0.9997543801489 -79.74108884872 0.9997543801489 -79.74108884872 0.0219731416249 27.700894595818
8.663450000000001 0.0219698653091 -7.168745134685 0.9997544060431 -79.74139579067 0.9997544060431 -79.74139579067 0.0219719153995 27.701831299230
8.663475000000000 0.0219686368533 -7.170291484283 0.9997544319622 -79.74170281466 0.9997544319622 -79.74170281466 0.0219706878597 27.702769454191
8.663500000000001 0.0219674070820 -7.171839440222 0.9997544579068 -79.74200992065 0.9997544579068 -79.74200992065 0.0219694590061 27.703709061197
8.663525000000000 0.0219661759863 -7.173389008118 0.9997544838764 -79.74231710917 0.9997544838764 -79.74231710917 0.0219682288303 27.704650129088
8.663550000000001 0.0219649435690 -7.174940189821 0.9997545098717 -79.74262438006 0.9997545098717 -79.74262438006 0.0219669973348 27.705592656001
8.663575000000000 0.0219637098201 -7.176492993362 0.9997545358923 -79.74293173394 0.9997545358923 -79.74293173394 0.0219657645098 27.706536652090
8.663600000000001 0.0219624747474 -7.178047414489 0.9997545619387 -79.74323917035 0.9997545619387 -79.74323917035 0.0219645303627 27.707482110239
8.663625000000000 0.0219612383321 -7.179603469176 0.9997545880097 -79.74354669042 0.9997545880097 -79.74354669042 0.0219632948757 27.708429051958
8.663650000000001 0.0219600005888 -7.181161148504 0.9997546141069 -79.74385429328 0.9997546141069 -79.74385429328 0.0219620580622 27.709377461019
8.663675000000001 0.0219587615048 -7.182720463324 0.9997546402293 -79.74416197971 0.9997546402293 -79.74416197971 0.0219608199104 27.710327352875
8.663700000000000 0.0219575210786 -7.184281418496 0.9997546663781 -79.74446974981 0.9997546663781 -79.74446974981 0.0219595804180 27.711278726512
8.663725000000001 0.0219562793090 -7.185844014726 0.9997546925523 -79.74477760366 0.9997546925523 -79.74477760366 0.0219583395844 27.712231587030
8.663750000000000 0.0219550361985 -7.187408249627 0.9997547187519 -79.74508554110 0.9997547187519 -79.74508554110 0.0219570974120 27.713185932491
8.663775000000001 0.0219537917390 -7.188974133702 0.9997547449776 -79.74539356265 0.9997547449776 -79.74539356265 0.0219558538927 27.714141770199
8.663800000000000 0.0219525459101 -7.190541687342 0.9997547712286 -79.74570166954 0.9997547712286 -79.74570166954 0.0219546090065 27.715099123158
8.663825000000001 0.0219512987438 -7.192110882489 0.9997547975064 -79.74600985985 0.9997547975064 -79.74600985985 0.0219533627842 27.716057956900
8.663850000000000 0.0219500502149 -7.193681742898 0.9997548238097 -79.74631813511 0.9997548238097 -79.74631813511 0.0219521152017 27.717018301224
8.663875000000001 0.0219488003272 -7.195254264306 0.9997548501385 -79.74662649508 0.9997548501385 -79.74662649508 0.0219508662629 27.717980151710
8.663900000000000 0.0219475490668 -7.196828464780 0.9997548764938 -79.74693494064 0.9997548764938 -79.74693494064 0.0219496159533 27.718943521677
8.663925000000001 0.0219462964537 -7.198404326067 0.9997549028755 -79.74724347057 0.9997549028755 -79.74724347057 0.0219483642926 27.719908393106
8.663950000000000 0.0219450424608 -7.199981872615 0.9997549292826 -79.74755208652 0.9997549292826 -79.74755208652 0.0219471112550 27.720874795160
8.663975000000001 0.0219437871053 -7.201561091472 0.9997549557164 -79.74786078746 0.9997549557164 -79.74786078746 0.0219458568564 27.721842708690
8.664000000000000 0.0219425303726 -7.203141996315 0.9997549821760 -79.74816957427 0.9997549821760 -79.74816957427 0.0219446010830 27.722812151153
8.664025000000001 0.0219412722548 -7.204724598474 0.9997550086624 -79.74847844747 0.9997550086624 -79.74847844747 0.0219433439265 27.723783129787
8.664050000000001 0.0219400127595 -7.206308889213 0.9997550351749 -79.74878740656 0.9997550351749 -79.74878740656 0.0219420853947 27.724755638313
8.664075000000000 0.0219387518826 -7.207894874762 0.9997550617138 -79.74909645183 0.9997550617138 -79.74909645183 0.0219408254835 27.725729682145
8.664100000000001 0.0219374896196 -7.209482559485 0.9997550882788 -79.74940558355 0.9997550882788 -79.74940558355 0.0219395641885 27.726705266688
8.664125000000000 0.0219362259642 -7.211071954871 0.9997551148713 -79.74971480212 0.9997551148713 -79.74971480212 0.0219383015027 27.727682396684
8.664150000000001 0.0219349609173 -7.212663056180 0.9997551414894 -79.75002410748 0.9997551414894 -79.75002410748 0.0219370374281 27.728661076030
8.664175000000000 0.0219336944765 -7.214255871518 0.9997551681349 -79.75033349980 0.9997551681349 -79.75033349980 0.0219357719613 27.729641305016
8.664200000000001 0.0219324266367 -7.215850401679 0.9997551948063 -79.75064297937 0.9997551948063 -79.75064297937 0.0219345050982 27.730623090322
8.664225000000000 0.0219311573978 -7.217446652570 0.9997552215048 -79.75095254622 0.9997552215048 -79.75095254622 0.0219332368379 27.731606433181
8.664250000000001 0.0219298867461 -7.219044637076 0.9997552482301 -79.75126220120 0.9997552482301 -79.75126220120 0.0219319671671 27.732591347041
8.664275000000000 0.0219286146967 -7.220644340360 0.9997552749816 -79.75157194337 0.9997552749816 -79.75157194337 0.0219306961012 27.733577820545
8.664300000000001 0.0219273412324 -7.222245784027 0.9997553017609 -79.75188177383 0.9997553017609 -79.75188177383 0.0219294236218 27.734565866883
8.664325000000000 0.0219260663549 -7.223848965019 0.9997553285666 -79.75219169245 0.9997553285666 -79.75219169245 0.0219281497319 27.735555489670
8.664350000000001 0.0219247900653 -7.225453881265 0.9997553553984 -79.75250169916 0.9997553553984 -79.75250169916 0.0219268744327 27.736546688641
8.664375000000000 0.0219235123558 -7.227060546824 0.9997553822584 -79.75281179447 0.9997553822584 -79.75281179447 0.0219255977150 27.737539467852
8.664400000000001 0.0219222332174 -7.228668970305 0.9997554091455 -79.75312197894 0.9997554091455 -79.75312197894 0.0219243195707 27.738533840000
8.664425000000001 0.0219209526628 -7.230279136473 0.9997554360589 -79.75343225177 0.9997554360589 -79.75343225177 0.0219230400130 27.739529794980
8.664450000000000 0.0219196706738 -7.231891067886 0.9997554629994 -79.75374261409 0.9997554629994 -79.75374261409 0.0219217590233 27.740527350162
8.664475000000001 0.0219183872516 -7.233504765608 0.9997554899677 -79.75405306586 0.9997554899677 -79.75405306586 0.0219204766022 27.741526504126
8.664500000000000 0.0219171024054 -7.235120220481 0.9997555169633 -79.75436360651 0.9997555169633 -79.75436360651 0.0219191927592 27.742527249319
8.664525000000001 0.0219158161112 -7.236737458067 0.9997555439865 -79.75467423751 0.9997555439865 -79.75467423751 0.0219179074705 27.743529610403
8.664550000000000 0.0219145283753 -7.238356472374 0.9997555710367 -79.75498495847 0.9997555710367 -79.75498495847 0.0219166207427 27.744533583526
8.664575000000001 0.0219132392026 -7.239977258153 0.9997555981139 -79.75529576911 0.9997555981139 -79.75529576911 0.0219153325806 27.745539163913
8.664600000000000 0.0219119485750 -7.241599838955 0.9997556252194 -79.75560667055 0.9997556252194 -79.75560667055 0.0219140429655 27.746546368768
8.664625000000001 0.0219106565054 -7.243224199161 0.9997556523518 -79.75591766199 0.9997556523518 -79.75591766199 0.0219127519110 27.747555188865
8.664650000000000 0.0219093629791 -7.244850357405 0.9997556795122 -79.75622874435 0.9997556795122 -79.75622874435 0.0219114594020 27.748565637125
8.664675000000001 0.0219080679963 -7.246478313050 0.9997557067000 -79.75653991763 0.9997557067000 -79.75653991763 0.0219101654389 27.749577716505
8.664700000000000 0.0219067715539 -7.248108070541 0.9997557339154 -79.75685118201 0.9997557339154 -79.75685118201 0.0219088700187 27.750591429547
8.664725000000001 0.0219054736432 -7.249739641841 0.9997557611591 -79.75716253804 0.9997557611591 -79.75716253804 0.0219075731323 27.751606785706
8.664750000000000 0.0219041742765 -7.251373014694 0.9997557884306 -79.75747398498 0.9997557884306 -79.75747398498 0.0219062747920 27.752623773916
8.664775000000001 0.0219028734342 -7.253008207501 0.9997558157292 -79.75778552401 0.9997558157292 -79.75778552401 0.0219049749793 27.753642417211
8.664800000000001 0.0219015711218 -7.254645219234 0.9997558430563 -79.75809715483 0.9997558430563 -79.75809715483 0.0219036736983 27.754662706452
8.664825000000000 0.0219002673391 -7.256284050169 0.9997558704110 -79.75840887745 0.9997558704110 -79.75840887745 0.0219023709497 27.755684646826
8.664850000000001 0.0218989620746 -7.257924712551 0.9997558977939 -79.75872069257 0.9997558977939 -79.75872069257 0.0219010667215 27.756708247367
8.664875000000000 0.0218976553226 -7.259567214912 0.9997559252049 -79.75903260056 0.9997559252049 -79.75903260056 0.0218997610084 27.757733517155
8.664900000000001 0.0218963470835 -7.261211559333 0.9997559526449 -79.75934460141 0.9997559526449 -79.75934460141 0.0218984538101 27.758760454011
8.664925000000000 0.0218950373647 -7.262857734967 0.9997559801120 -79.75965669465 0.9997559801120 -79.75965669465 0.0218971451350 27.759789055622
8.664950000000001 0.0218937261525 -7.264505760900 0.9997560076080 -79.75996888115 0.9997560076080 -79.75996888115 0.0218958349686 27.760819332868
8.664975000000000 0.0218924134443 -7.266155638059 0.9997560351318 -79.76028116105 0.9997560351318 -79.76028116105 0.0218945233090 27.761851291308
8.665000000000001 0.0218910992374 -7.267807373017 0.9997560626842 -79.76059353454 0.9997560626842 -79.76059353454 0.0218932101530 27.762884933889
8.665025000000000 0.0218897835248 -7.269460973706 0.9997560902653 -79.76090600205 0.9997560902653 -79.76090600205 0.0218918954937 27.763920267830