! Sonnet Data File
! From: emgraph Version : 16.52
! From Emgraph Data: 171117_Xmon_fullysym_trail
! Data File Written: 11/21/2017 21:51:37
!< HDATE 11/21/2017 20:18:41
!< MDATE 11/21/2017 20:18:41
!< PARAMS
!< Lj = 11.0
!< Width = 10.0
!< END PARAMS
# GHZ S MA R 50.90000
8.660000000000000 0.0068364114212 27.564276355480 0.9999728984918 -79.42631605048 0.9999728984952 -79.42631605070 0.0068347999771 -6.372297313318
!< P1 F=8.66 Eeff=(6.44844023 -2.9799e-5) Z0=(50.9085963 1.17006e-4) R=0.0 C=0.0 
!< P2 F=8.66 Eeff=(6.44844012 -2.9799e-5) Z0=(50.9086403 1.17006e-4) R=0.0 C=0.0 
8.660050000000000 0.0068350293450 27.567129427815 0.9999729069131 -79.42685791209 0.9999729069131 -79.42685791209 0.0068334171749 -6.376210727107
8.660100000000000 0.0068336447609 27.569989315078 0.9999729153231 -79.42739992220 0.9999729153231 -79.42739992220 0.0068320318253 -6.380130743939
8.660150000000000 0.0068322576443 27.572855647115 0.9999729237454 -79.42794208355 0.9999729237454 -79.42794208355 0.0068306439412 -6.384057430406
8.660200000000000 0.0068308679861 27.575728447897 0.9999729321800 -79.42848439666 0.9999729321800 -79.42848439666 0.0068292535133 -6.387990812652
8.660250000000001 0.0068294757748 27.578607745624 0.9999729406270 -79.42902686224 0.9999729406270 -79.42902686224 0.0068278605302 -6.391930918291
8.660300000000001 0.0068280810071 27.581493552457 0.9999729490863 -79.42956948047 0.9999729490863 -79.42956948047 0.0068264649884 -6.395877758717
8.660350000000001 0.0068266836734 27.584385894766 0.9999729575578 -79.43011225193 0.9999729575578 -79.43011225193 0.0068250668785 -6.399831359708
8.660400000000001 0.0068252837641 27.587284794084 0.9999729660417 -79.43065517718 0.9999729660417 -79.43065517718 0.0068236661909 -6.403791746287
8.660450000000001 0.0068238812731 27.590190273228 0.9999729745378 -79.43119825661 0.9999729745378 -79.43119825661 0.0068222629191 -6.407758937115
8.660500000000001 0.0068224761819 27.593102368553 0.9999729830466 -79.43174149129 0.9999729830466 -79.43174149129 0.0068208570451 -6.411732977387
8.660550000000001 0.0068210684964 27.596021076304 0.9999729915678 -79.43228488088 0.9999729915678 -79.43228488088 0.0068194485745 -6.415713857409
8.660600000000001 0.0068196581972 27.598946442826 0.9999730001016 -79.43282842655 0.9999730001016 -79.43282842655 0.0068180374881 -6.419701627930
8.660650000000000 0.0068182452826 27.601878475227 0.9999730086478 -79.43337212839 0.9999730086478 -79.43337212839 0.0068166237839 -6.423696293626
8.660700000000000 0.0068168297398 27.604817204828 0.9999730172065 -79.43391598715 0.9999730172065 -79.43391598715 0.0068152074492 -6.427697885973
8.660750000000000 0.0068154115588 27.607762657733 0.9999730257778 -79.43446000345 0.9999730257778 -79.43446000345 0.0068137884741 -6.431706434621
8.660800000000000 0.0068139907373 27.610714842169 0.9999730343620 -79.43500417740 0.9999730343620 -79.43500417740 0.0068123668564 -6.435721950194
8.660850000000000 0.0068125672580 27.613673805134 0.9999730429582 -79.43554851006 0.9999730429582 -79.43554851006 0.0068109425783 -6.439744467906
8.660900000000000 0.0068111411186 27.616639545242 0.9999730515679 -79.43609300154 0.9999730515679 -79.43609300154 0.0068095156382 -6.443774010276
8.660950000000000 0.0068097123051 27.619612107582 0.9999730601899 -79.43663765269 0.9999730601899 -79.43663765269 0.0068080860214 -6.447810601730
8.661000000000001 0.0068082808107 27.622591508966 0.9999730688244 -79.43718246391 0.9999730688244 -79.43718246391 0.0068066537213 -6.451854263820
8.661050000000001 0.0068068466242 27.625577774490 0.9999730774720 -79.43772743587 0.9999730774720 -79.43772743587 0.0068052187268 -6.455905029323
8.661100000000001 0.0068054097453 27.628570912200 0.9999730861323 -79.43827256859 0.9999730861323 -79.43827256859 0.0068037810376 -6.459962902760
8.661150000000001 0.0068039701502 27.631570974376 0.9999730948056 -79.43881786347 0.9999730948056 -79.43881786347 0.0068023406300 -6.464027940210
8.661200000000001 0.0068025278443 27.634577960172 0.9999731034915 -79.43936332021 0.9999731034915 -79.43936332021 0.0068008975090 -6.468100133342
8.661250000000001 0.0068010828032 27.637591921795 0.9999731121902 -79.43990894025 0.9999731121902 -79.43990894025 0.0067994516505 -6.472179540231
8.661300000000001 0.0067996350333 27.640612846463 0.9999731209025 -79.44045472321 0.9999731209025 -79.44045472321 0.0067980030611 -6.476266159615
8.661350000000001 0.0067981845121 27.643640793954 0.9999731296274 -79.44100067043 0.9999731296274 -79.44100067043 0.0067965517177 -6.480360033280
8.661400000000000 0.0067967312394 27.646675771394 0.9999731383651 -79.44154678193 0.9999731383651 -79.44154678193 0.0067950976204 -6.484461175727
8.661450000000000 0.0067952752024 27.649717803767 0.9999731471160 -79.44209305846 0.9999731471160 -79.44209305846 0.0067936407564 -6.488569615955
8.661500000000000 0.0067938163884 27.652766926953 0.9999731558800 -79.44263950078 0.9999731558800 -79.44263950078 0.0067921811131 -6.492685389291
8.661550000000000 0.0067923547936 27.655823156012 0.9999731646567 -79.44318610913 0.9999731646567 -79.44318610913 0.0067907186863 -6.496808505448
8.661600000000000 0.0067908904044 27.658886520220 0.9999731734470 -79.44373288430 0.9999731734470 -79.44373288430 0.0067892534628 -6.500939004390
8.661650000000000 0.0067894232107 27.661957048784 0.9999731822502 -79.44427982690 0.9999731822502 -79.44427982690 0.0067877854323 -6.505076909487
8.661700000000000 0.0067879532032 27.665034760819 0.9999731910671 -79.44482693748 0.9999731910671 -79.44482693748 0.0067863145857 -6.509222248945
8.661750000000001 0.0067864803770 27.668119684478 0.9999731998965 -79.44537421634 0.9999731998965 -79.44537421634 0.0067848409176 -6.513375033003
8.661800000000001 0.0067850047157 27.671211849111 0.9999732087394 -79.44592166445 0.9999732087394 -79.44592166445 0.0067833644120 -6.517535308058
8.661850000000001 0.0067835262127 27.674311277414 0.9999732175957 -79.44646928221 0.9999732175957 -79.44646928221 0.0067818850622 -6.521703093994
8.661900000000001 0.0067820448538 27.677418002268 0.9999732264655 -79.44701707045 0.9999732264655 -79.44701707045 0.0067804028541 -6.525878424737
8.661950000000001 0.0067805606357 27.680532040686 0.9999732353484 -79.44756502938 0.9999732353484 -79.44756502938 0.0067789177840 -6.530061313801
8.662000000000001 0.0067790735435 27.683653423523 0.9999732442451 -79.44811315987 0.9999732442451 -79.44811315987 0.0067774298376 -6.534251802199
8.662050000000001 0.0067775835695 27.686782182580 0.9999732531544 -79.44866146241 0.9999732531544 -79.44866146241 0.0067759390064 -6.538449902127
8.662100000000001 0.0067760907005 27.689918335524 0.9999732620781 -79.44920993775 0.9999732620781 -79.44920993775 0.0067744452781 -6.542655661251
8.662150000000000 0.0067745949297 27.693061916968 0.9999732710147 -79.44975858632 0.9999732710147 -79.44975858632 0.0067729486450 -6.546869087651
8.662200000000000 0.0067730962431 27.696212956644 0.9999732799648 -79.45030740895 0.9999732799648 -79.45030740895 0.0067714490936 -6.551090224248
8.662250000000000 0.0067715946383 27.699371462667 0.9999732889287 -79.45085640577 0.9999732889287 -79.45085640577 0.0067699466215 -6.555319082199
8.662300000000000 0.0067700900943 27.702537489093 0.9999732979060 -79.45140557804 0.9999732979060 -79.45140557804 0.0067684412073 -6.559555708404
8.662350000000000 0.0067685826050 27.705711048122 0.9999733068972 -79.45195492611 0.9999733068972 -79.45195492611 0.0067669328455 -6.563800126526
8.662400000000000 0.0067670721628 27.708892166157 0.9999733159023 -79.45250445045 0.9999733159023 -79.45250445045 0.0067654215281 -6.568052359860
8.662450000000000 0.0067655587533 27.712080883338 0.9999733249204 -79.45305415191 0.9999733249204 -79.45305415191 0.0067639072404 -6.572312435502
8.662500000000001 0.0067640423643 27.715277223733 0.9999733339526 -79.45360403122 0.9999733339526 -79.45360403122 0.0067623899708 -6.576580396602
8.662550000000001 0.0067625229911 27.718481207213 0.9999733429984 -79.45415408865 0.9999733429984 -79.45415408865 0.0067608697142 -6.580856252649
8.662600000000001 0.0067610006141 27.721692876826 0.9999733520585 -79.45470432537 0.9999733520585 -79.45470432537 0.0067593464512 -6.585140058470
8.662650000000001 0.0067594752395 27.724912229536 0.9999733611320 -79.45525474102 0.9999733611320 -79.45525474102 0.0067578201878 -6.589431799221
8.662700000000001 0.0067579468327 27.728139340862 0.9999733702197 -79.45580533764 0.9999733702197 -79.45580533764 0.0067562908895 -6.593731561251
8.662750000000001 0.0067564153979 27.731374216044 0.9999733793208 -79.45635611501 0.9999733793208 -79.45635611501 0.0067547585602 -6.598039337351
8.662800000000001 0.0067548809226 27.734616874747 0.9999733884362 -79.45690707384 0.9999733884362 -79.45690707384 0.0067532231878 -6.602355161478
8.662850000000001 0.0067533433964 27.737867355206 0.9999733975653 -79.45745821477 0.9999733975653 -79.45745821477 0.0067516847617 -6.606679064496
8.662900000000000 0.0067518028002 27.741125692890 0.9999734067092 -79.45800953892 0.9999734067092 -79.45800953892 0.0067501432631 -6.611011097317
8.662950000000000 0.0067502591309 27.744391914760 0.9999734158664 -79.45856104650 0.9999734158664 -79.45856104650 0.0067485986882 -6.615351264249
8.663000000000000 0.0067487123777 27.747666038376 0.9999734250381 -79.45911273813 0.9999734250381 -79.45911273813 0.0067470510268 -6.619699600341
8.663050000000000 0.0067471625229 27.750948109464 0.9999734342238 -79.45966461487 0.9999734342238 -79.45966461487 0.0067455002610 -6.624056146204
8.663100000000000 0.0067456095561 27.754238162314 0.9999734434234 -79.46021667735 0.9999734434234 -79.46021667735 0.0067439463800 -6.628420934437
8.663150000000000 0.0067440534685 27.757536211416 0.9999734526377 -79.46076892607 0.9999734526377 -79.46076892607 0.0067423893757 -6.632793990111
8.663200000000000 0.0067424942509 27.760842291183 0.9999734618660 -79.46132136159 0.9999734618660 -79.46132136159 0.0067408292384 -6.637175338315
8.663250000000000 0.0067409318832 27.764156448152 0.9999734711085 -79.46187398512 0.9999734711085 -79.46187398512 0.0067392659480 -6.641565028582
8.663300000000001 0.0067393663639 27.767478687916 0.9999734803655 -79.46242679673 0.9999734803655 -79.46242679673 0.0067376995033 -6.645963071450
8.663350000000001 0.0067377976754 27.770809056400 0.9999734896368 -79.46297979747 0.9999734896368 -79.46297979747 0.0067361298863 -6.650369509538
8.663400000000001 0.0067362258059 27.774147587328 0.9999734989225 -79.46353298805 0.9999734989225 -79.46353298805 0.0067345570854 -6.654784378584
8.663450000000001 0.0067346507469 27.777494300517 0.9999735082227 -79.46408636896 0.9999735082227 -79.46408636896 0.0067329810921 -6.659207699992
8.663500000000001 0.0067330724786 27.780849248306 0.9999735175373 -79.46463994140 0.9999735175373 -79.46463994140 0.0067314018864 -6.663639525692
8.663550000000001 0.0067314910028 27.784212433025 0.9999735268661 -79.46519370525 0.9999735268661 -79.46519370525 0.0067298194701 -6.668079854504
8.663600000000001 0.0067299062929 27.787583914158 0.9999735362097 -79.46574766208 0.9999735362097 -79.46574766208 0.0067282338169 -6.672528754451
8.663650000000001 0.0067283183413 27.790963713394 0.9999735455682 -79.46630181236 0.9999735455682 -79.46630181236 0.0067266449191 -6.676986251312
8.663700000000000 0.0067267271394 27.794351860784 0.9999735549410 -79.46685615661 0.9999735549410 -79.46685615661 0.0067250527678 -6.681452363292
8.663750000000000 0.0067251326748 27.797748386693 0.9999735643284 -79.46741069554 0.9999735643284 -79.46741069554 0.0067234573507 -6.685927127635
8.663800000000000 0.0067235349322 27.801153327977 0.9999735737308 -79.46796543009 0.9999735737308 -79.46796543009 0.0067218586526 -6.690410586468
8.663850000000000 0.0067219338961 27.804566727361 0.9999735831477 -79.46852036115 0.9999735831477 -79.46852036115 0.0067202566579 -6.694902774684
8.663900000000000 0.0067203295599 27.807988602131 0.9999735925796 -79.46907548914 0.9999735925796 -79.46907548914 0.0067186513600 -6.699403717393
8.663950000000000 0.0067187219083 27.811418998134 0.9999736020258 -79.46963081496 0.9999736020258 -79.46963081496 0.0067170427434 -6.703913451863
8.664000000000000 0.0067171109283 27.814857939175 0.9999736114875 -79.47018633937 0.9999736114875 -79.47018633937 0.0067154307956 -6.708432019639
8.664050000000001 0.0067154966089 27.818305463795 0.9999736209637 -79.47074206305 0.9999736209637 -79.47074206305 0.0067138155051 -6.712959442150
8.664100000000001 0.0067138789319 27.821761616210 0.9999736304549 -79.47129798706 0.9999736304549 -79.47129798706 0.0067121968537 -6.717495774352
8.664150000000001 0.0067122578927 27.825226409117 0.9999736399612 -79.47185411169 0.9999736399612 -79.47185411169 0.0067105748371 -6.722041027838
8.664200000000001 0.0067106334722 27.828699889975 0.9999736494828 -79.47241043806 0.9999736494828 -79.47241043806 0.0067089494360 -6.726595256269
8.664250000000001 0.0067090056569 27.832182104429 0.9999736590187 -79.47296696700 0.9999736590187 -79.47296696700 0.0067073206366 -6.731158487661
8.664300000000001 0.0067073744422 27.835673054043 0.9999736685702 -79.47352369874 0.9999736685702 -79.47352369874 0.0067056884348 -6.735730744790
8.664350000000001 0.0067057397991 27.839172812903 0.9999736781371 -79.47408063503 0.9999736781371 -79.47408063503 0.0067040528015 -6.740312100520
8.664400000000001 0.0067041017279 27.842681396684 0.9999736877185 -79.47463777587 0.9999736877185 -79.47463777587 0.0067024137364 -6.744902553246
8.664450000000000 0.0067024602094 27.846198841354 0.9999736973155 -79.47519512237 0.9999736973155 -79.47519512237 0.0067007712210 -6.749502159447
8.664500000000000 0.0067008152313 27.849725184041 0.9999737069279 -79.47575267528 0.9999737069279 -79.47575267528 0.0066991252426 -6.754110951085
8.664550000000000 0.0066991667849 27.853260451034 0.9999737165555 -79.47631043511 0.9999737165555 -79.47631043511 0.0066974757927 -6.758728954249
8.664600000000000 0.0066975148450 27.856804708285 0.9999737261980 -79.47686840337 0.9999737261980 -79.47686840337 0.0066958228455 -6.763356226930
8.664650000000000 0.0066958594065 27.860357963797 0.9999737358564 -79.47742658034 0.9999737358564 -79.47742658034 0.0066941663967 -6.767992793966
8.664700000000000 0.0066942004565 27.863920252633 0.9999737455304 -79.47798496679 0.9999737455304 -79.47798496679 0.0066925064332 -6.772638688949
8.664750000000000 0.0066925379706 27.867491643456 0.9999737552195 -79.47854356420 0.9999737552195 -79.47854356420 0.0066908429301 -6.777293969105
8.664800000000001 0.0066908719470 27.871072142013 0.9999737649241 -79.47910237265 0.9999737649241 -79.47910237265 0.0066891758860 -6.781958649286
8.664850000000001 0.0066892023651 27.874661797591 0.9999737746445 -79.47966139338 0.9999737746445 -79.47966139338 0.0066875052801 -6.786632781271
8.664900000000001 0.0066875292137 27.878260647683 0.9999737843801 -79.48022062705 0.9999737843801 -79.48022062705 0.0066858311011 -6.791316394289
8.664950000000001 0.0066858524769 27.881868725258 0.9999737941317 -79.48078007459 0.9999737941317 -79.48078007459 0.0066841533334 -6.796009535367
8.665000000000001 0.0066841721376 27.885486079532 0.9999738038989 -79.48133973704 0.9999738038989 -79.48133973704 0.0066824719596 -6.800712246858
8.665050000000001 0.0066824881859 27.889112737056 0.9999738136820 -79.48189961498 0.9999738136820 -79.48189961498 0.0066807869700 -6.805424559796
8.665100000000001 0.0066808006021 27.892748749925 0.9999738234806 -79.48245970957 0.9999738234806 -79.48245970957 0.0066790983447 -6.810146520858
8.665150000000001 0.0066791093751 27.896394148500 0.9999738332950 -79.48302002149 0.9999738332950 -79.48302002149 0.0066774060726 -6.814878164631
8.665200000000000 0.0066774144915 27.900048966610 0.9999738431254 -79.48358055153 0.9999738431254 -79.48358055153 0.0066757101403 -6.819619528540
8.665250000000000 0.0066757159354 27.903713249379 0.9999738529716 -79.48414130063 0.9999738529716 -79.48414130063 0.0066740105319 -6.824370655138
8.665300000000000 0.0066740136870 27.907387044023 0.9999738628337 -79.48470226996 0.9999738628337 -79.48470226996 0.0066723072275 -6.829131591649
8.665350000000000 0.0066723077427 27.911070366085 0.9999738727120 -79.48526345975 0.9999738727120 -79.48526345975 0.0066706002238 -6.833902361351
8.665400000000000 0.0066705980710 27.914763294913 0.9999738826061 -79.48582487187 0.9999738826061 -79.48582487187 0.0066688894888 -6.838683034847
8.665450000000000 0.0066688846672 27.918465840452 0.9999738925165 -79.48638650658 0.9999738925165 -79.48638650658 0.0066671750182 -6.843473633269
8.665500000000000 0.0066671675181 27.922178045418 0.9999739024428 -79.48694836468 0.9999739024428 -79.48694836468 0.0066654567984 -6.848274191076
8.665550000000001 0.0066654466042 27.925899959043 0.9999739123853 -79.48751044734 0.9999739123853 -79.48751044734 0.0066637348101 -6.853084761816
8.665600000000001 0.0066637219075 27.929631623158 0.9999739223443 -79.48807275561 0.9999739223443 -79.48807275561 0.0066620090355 -6.857905394514
8.665650000000001 0.0066619934124 27.933373085154 0.9999739323192 -79.48863529042 0.9999739323192 -79.48863529042 0.0066602794584 -6.862736124676
8.665700000000001 0.0066602611096 27.937124370158 0.9999739423105 -79.48919805234 0.9999739423105 -79.48919805234 0.0066585460698 -6.867576987196
8.665750000000001 0.0066585249776 27.940885529195 0.9999739523181 -79.48976104263 0.9999739523181 -79.48976104263 0.0066568088485 -6.872428032878
8.665800000000001 0.0066567850006 27.944656608520 0.9999739623423 -79.49032426223 0.9999739623423 -79.49032426223 0.0066550677780 -6.877289309592
8.665850000000001 0.0066550411681 27.948437635352 0.9999739723831 -79.49088771177 0.9999739723831 -79.49088771177 0.0066533228485 -6.882160848607
8.665900000000001 0.0066532934532 27.952228680498 0.9999739824401 -79.49145139285 0.9999739824401 -79.49145139285 0.0066515740325 -6.887042712042
8.665950000000000 0.0066515418495 27.956029765664 0.9999739925135 -79.49201530585 0.9999739925135 -79.49201530585 0.0066498213238 -6.891934924107
8.666000000000000 0.0066497863376 27.959840934556 0.9999740026037 -79.49257945191 0.9999740026037 -79.49257945191 0.0066480647030 -6.896837537804
8.666050000000000 0.0066480268965 27.963662244861 0.9999740127105 -79.49314383229 0.9999740127105 -79.49314383229 0.0066463041490 -6.901750606660
8.666100000000000 0.0066462635147 27.967493733555 0.9999740228336 -79.49370844768 0.9999740228336 -79.49370844768 0.0066445396503 -6.906674163176
8.666150000000000 0.0066444961785 27.971335430789 0.9999740329736 -79.49427329889 0.9999740329736 -79.49427329889 0.0066427711930 -6.911608246742
8.666200000000000 0.0066427248645 27.975187398892 0.9999740431306 -79.49483838729 0.9999740431306 -79.49483838729 0.0066409987542 -6.916552921825
8.666250000000000 0.0066409495532 27.979049688867 0.9999740533042 -79.49540371406 0.9999740533042 -79.49540371406 0.0066392223139 -6.921508233835
8.666300000000000 0.0066391702384 27.982922317595 0.9999740634951 -79.49596927956 0.9999740634951 -79.49596927956 0.0066374418662 -6.926474211429
8.666350000000001 0.0066373868917 27.986805364388 0.9999740737023 -79.49653508548 0.9999740737023 -79.49653508548 0.0066356573823 -6.931450915695
8.666400000000001 0.0066355995029 27.990698852593 0.9999740839269 -79.49710113244 0.9999740839269 -79.49710113244 0.0066338688522 -6.936438390128
8.666450000000001 0.0066338080533 27.994602831726 0.9999740941684 -79.49766742152 0.9999740941684 -79.49766742152 0.0066320762572 -6.941436676137
8.666500000000001 0.0066320125269 27.998517350448 0.9999741044267 -79.49823395370 0.9999741044267 -79.49823395370 0.0066302795812 -6.946445819757
8.666550000000001 0.0066302128966 28.002442469780 0.9999741147024 -79.49880073057 0.9999741147024 -79.49880073057 0.0066284787971 -6.951465893616
8.666600000000001 0.0066284091539 28.006378223174 0.9999741249947 -79.49936775265 0.9999741249947 -79.49936775265 0.0066266738961 -6.956496917828
8.666650000000001 0.0066266012822 28.010324646636 0.9999741353048 -79.49993502091 0.9999741353048 -79.49993502091 0.0066248648623 -6.961538947470
8.666700000000001 0.0066247892581 28.014281802945 0.9999741456322 -79.50050253675 0.9999741456322 -79.50050253675 0.0066230516716 -6.966592036475
8.666750000000000 0.0066229730659 28.018249742836 0.9999741559763 -79.50107030111 0.9999741559763 -79.50107030111 0.0066212343084 -6.971656228317
8.666800000000000 0.0066211526825 28.022228512956 0.9999741663384 -79.50163831535 0.9999741663384 -79.50163831535 0.0066194127499 -6.976731589234
8.666850000000000 0.0066193280972 28.026218155183 0.9999741767173 -79.50220658011 0.9999741767173 -79.50220658011 0.0066175869849 -6.981818144130
8.666900000000000 0.0066174992844 28.030218731053 0.9999741871138 -79.50277509691 0.9999741871138 -79.50277509691 0.0066157569880 -6.986915964990
8.666950000000000 0.0066156662291 28.034230278934 0.9999741975280 -79.50334386664 0.9999741975280 -79.50334386664 0.0066139227442 -6.992025093146
8.667000000000000 0.0066138289130 28.038252853334 0.9999742079595 -79.50391289039 0.9999742079595 -79.50391289039 0.0066120842352 -6.997145577947
8.667050000000000 0.0066119873181 28.042286493519 0.9999742184090 -79.50448216922 0.9999742184090 -79.50448216922 0.0066102414431 -7.002277467313
8.667100000000001 0.0066101414261 28.046331259325 0.9999742288758 -79.50505170424 0.9999742288758 -79.50505170424 0.0066083943492 -7.007420812918
8.667150000000001 0.0066082912080 28.050387218229 0.9999742393602 -79.50562149715 0.9999742393602 -79.50562149715 0.0066065429246 -7.012575687187
8.667200000000001 0.0066064366529 28.054454400543 0.9999742498626 -79.50619154860 0.9999742498626 -79.50619154860 0.0066046871586 -7.017742124763
8.667250000000001 0.0066045777391 28.058532866085 0.9999742603827 -79.50676185988 0.9999742603827 -79.50676185988 0.0066028270292 -7.022920182005
8.667300000000001 0.0066027144465 28.062622671541 0.9999742709204 -79.50733243220 0.9999742709204 -79.50733243220 0.0066009625162 -7.028109914605
8.667350000000001 0.0066008467599 28.066723852241 0.9999742814763 -79.50790326644 0.9999742814763 -79.50790326644 0.0065990936049 -7.033311368332
8.667400000000001 0.0065989746580 28.070836463768 0.9999742920503 -79.50847436387 0.9999742920503 -79.50847436387 0.0065972202737 -7.038524597033
8.667450000000001 0.0065970981157 28.074960580248 0.9999743026418 -79.50904572600 0.9999743026418 -79.50904572600 0.0065953424969 -7.043749664772
8.667500000000000 0.0065952171141 28.079096237757 0.9999743132522 -79.50961735392 0.9999743132522 -79.50961735392 0.0065934602566 -7.048986629818
8.667550000000000 0.0065933316403 28.083243493752 0.9999743238796 -79.51018924844 0.9999743238797 -79.51018924844 0.0065915735388 -7.054235521473
8.667600000000000 0.0065914416603 28.087402412313 0.9999743345260 -79.51076141153 0.9999743345260 -79.51076141153 0.0065896823103 -7.059496433071
8.667650000000000 0.0065895471683 28.091573027366 0.9999743451903 -79.51133384356 0.9999743451903 -79.51133384356 0.0065877865650 -7.064769385077
8.667700000000000 0.0065876481345 28.095755411818 0.9999743558729 -79.51190654630 0.9999743558729 -79.51190654630 0.0065858862729 -7.070054452513
8.667750000000000 0.0065857445387 28.099949617087 0.9999743665739 -79.51247952095 0.9999743665739 -79.51247952095 0.0065839814139 -7.075351692650
8.667800000000000 0.0065838363573 28.104155708490 0.9999743772932 -79.51305276891 0.9999743772932 -79.51305276891 0.0065820719645 -7.080661167673
8.667850000000001 0.0065819235785 28.108373720093 0.9999743880307 -79.51362629087 0.9999743880307 -79.51362629087 0.0065801579126 -7.085982911304
8.667900000000001 0.0065800061700 28.112603736702 0.9999743987865 -79.51420008877 0.9999743987865 -79.51420008877 0.0065782392258 -7.091317007429
8.667950000000001 0.0065780841187 28.116845783174 0.9999744095618 -79.51477416335 0.9999744095618 -79.51477416335 0.0065763158917 -7.096663503347
8.668000000000001 0.0065761573963 28.121099946164 0.9999744203551 -79.51534851633 0.9999744203551 -79.51534851633 0.0065743878812 -7.102022461641
8.668050000000001 0.0065742259899 28.125366264777 0.9999744311668 -79.51592314847 0.9999744311668 -79.51592314847 0.0065724551814 -7.107393925505
8.668100000000001 0.0065722898684 28.129644809970 0.9999744419973 -79.51649806159 0.9999744419973 -79.51649806159 0.0065705177615 -7.112777975363
8.668150000000001 0.0065703490131 28.133935632444 0.9999744528468 -79.51707325683 0.9999744528468 -79.51707325683 0.0065685756027 -7.118174664134
8.668200000000001 0.0065684034009 28.138238798926 0.9999744637149 -79.51764873554 0.9999744637149 -79.51764873554 0.0065666286817 -7.123584053034
8.668250000000000 0.0065664530079 28.142554367560 0.9999744746020 -79.51822449914 0.9999744746020 -79.51822449914 0.0065646769748 -7.129006207182
8.668300000000000 0.0065644978166 28.146882392986 0.9999744855079 -79.51880054869 0.9999744855079 -79.51880054869 0.0065627204641 -7.134441176181
8.668350000000000 0.0065625378022 28.151222938338 0.9999744964326 -79.51937688565 0.9999744964326 -79.51937688565 0.0065607591250 -7.139889024653
8.668400000000000 0.0065605729368 28.155576069508 0.9999745073769 -79.51995351167 0.9999745073769 -79.51995351167 0.0065587929299 -7.145349832539
8.668450000000000 0.0065586032006 28.159941850433 0.9999745183398 -79.52053042793 0.9999745183398 -79.52053042793 0.0065568218583 -7.150823646763
8.668500000000000 0.0065566285687 28.164320340419 0.9999745293218 -79.52110763591 0.9999745293218 -79.52110763591 0.0065548458856 -7.156310536216
8.668550000000000 0.0065546490179 28.168711603851 0.9999745403233 -79.52168513698 0.9999745403233 -79.52168513698 0.0065528649886 -7.161810569022
8.668600000000001 0.0065526645262 28.173115697069 0.9999745513440 -79.52226293246 0.9999745513440 -79.52226293246 0.0065508791453 -7.167323800693
8.668650000000001 0.0065506750730 28.177532684930 0.9999745623835 -79.52284102357 0.9999745623835 -79.52284102357 0.0065488883347 -7.172850288137
8.668700000000001 0.0065486806245 28.181962641439 0.9999745734430 -79.52341941230 0.9999745734430 -79.52341941230 0.0065468925235 -7.178390124479
8.668750000000001 0.0065466811670 28.186405618848 0.9999745845213 -79.52399809948 0.9999745845213 -79.52399809948 0.0065448916973 -7.183943343286
8.668800000000001 0.0065446766697 28.190861684980 0.9999745956197 -79.52457708692 0.9999745956197 -79.52457708692 0.0065428858261 -7.189510033267
8.668850000000001 0.0065426671112 28.195330904640 0.9999746067378 -79.52515637591 0.9999746067378 -79.52515637591 0.0065408748880 -7.195090254033
8.668900000000001 0.0065406524603 28.199813364090 0.9999746178748 -79.52573596830 0.9999746178748 -79.52573596830 0.0065388588515 -7.200684078829
8.668950000000001 0.0065386326963 28.204309109395 0.9999746290318 -79.52631586531 0.9999746290318 -79.52631586531 0.0065368376963 -7.206291572657
8.669000000000000 0.0065366077953 28.208818215811 0.9999746402082 -79.52689606836 0.9999746402082 -79.52689606836 0.0065348113981 -7.211912798956
8.669050000000000 0.0065345777294 28.213340744047 0.9999746514050 -79.52747657911 0.9999746514050 -79.52747657911 0.0065327799293 -7.217547835316
8.669100000000000 0.0065325424738 28.217876773777 0.9999746626209 -79.52805739903 0.9999746626209 -79.52805739903 0.0065307432647 -7.223196742527
8.669150000000000 0.0065305020085 28.222426351857 0.9999746738571 -79.52863852930 0.9999746738571 -79.52863852930 0.0065287013847 -7.228859585994
8.669200000000000 0.0065284562921 28.226989582537 0.9999746851133 -79.52921997238 0.9999746851134 -79.52921997238 0.0065266542477 -7.234536466403
8.669250000000000 0.0065264053095 28.231566514084 0.9999746963896 -79.52980172918 0.9999746963896 -79.52980172918 0.0065246018382 -7.240227431823
8.669300000000000 0.0065243490392 28.236157212343 0.9999747076853 -79.53038380097 0.9999747076853 -79.53038380097 0.0065225441349 -7.245932537963
8.669350000000000 0.0065222874422 28.240761764453 0.9999747190015 -79.53096619005 0.9999747190015 -79.53096619005 0.0065204810989 -7.251651890730
8.669400000000001 0.0065202205005 28.245380226463 0.9999747303380 -79.53154889750 0.9999747303380 -79.53154889750 0.0065184127121 -7.257385541479
8.669450000000001 0.0065181481786 28.250012688362 0.9999747416950 -79.53213192542 0.9999747416950 -79.53213192542 0.0065163389390 -7.263133585842
8.669500000000001 0.0065160704581 28.254659207669 0.9999747530721 -79.53271527492 0.9999747530721 -79.53271527492 0.0065142597609 -7.268896074825
8.669550000000001 0.0065139873076 28.259319865211 0.9999747644691 -79.53329894784 0.9999747644691 -79.53329894784 0.0065121751464 -7.274673084883
8.669600000000001 0.0065118986997 28.263994732092 0.9999747758870 -79.53388294582 0.9999747758870 -79.53388294582 0.0065100850683 -7.280464705287
8.669650000000001 0.0065098046039 28.268683891084 0.9999747873251 -79.53446727066 0.9999747873251 -79.53446727066 0.0065079894959 -7.286271005574
8.669700000000001 0.0065077049989 28.273387397899 0.9999747987840 -79.53505192363 0.9999747987840 -79.53505192363 0.0065058884079 -7.292092053862
8.669750000000001 0.0065055998446 28.278105354593 0.9999748102639 -79.53563690710 0.9999748102639 -79.53563690710 0.0065037817642 -7.297927954580
8.669800000000000 0.0065034891220 28.282837828344 0.9999748217636 -79.53622222223 0.9999748217636 -79.53622222223 0.0065016695454 -7.303778755450
8.669850000000000 0.0065013728028 28.287584881280 0.9999748332843 -79.53680787066 0.9999748332843 -79.53680787066 0.0064995517235 -7.309644537860
8.669900000000000 0.0064992508537 28.292346602935 0.9999748448263 -79.53739385438 0.9999748448263 -79.53739385438 0.0064974282653 -7.315525397118
8.669950000000000 0.0064971232447 28.297123081551 0.9999748563885 -79.53798017518 0.9999748563885 -79.53798017518 0.0064952991402 -7.321421404503
8.670000000000000 0.0064949899461 28.301914388704 0.9999748679717 -79.53856683480 0.9999748679717 -79.53856683480 0.0064931643189 -7.327332644699
8.670050000000000 0.0064928509325 28.306720593948 0.9999748795764 -79.53915383477 0.9999748795764 -79.53915383477 0.0064910237760 -7.333259194654