! Sonnet Data File
! From: emgraph Version : 16.52
! From Emgraph Data: 171117_Xmon_fullysym_trail
! Data File Written: 11/22/2017 17:45:02
!< HDATE 11/22/2017 16:26:38
!< MDATE 11/22/2017 16:27:08
!< PARAMS
!< Lj = 11.0
!< Gap = 1.0
!< Width = 50.0
!< END PARAMS
# GHZ S MA R 50.90000
8.68000000 0.012819 -172.0 0.999906 -80.92 0.999906 -80.92 0.012818 -169.9
!< P1 F=8.68 Eeff=(6.44037968 -3.1351e-5) Z0=(50.2253428 1.04803e-4) R=0.0 C=0.0 
!< P2 F=8.68 Eeff=(6.44037754 -3.1351e-5) Z0=(50.2257804 1.04803e-4) R=0.0 C=0.0 
8.68005000 0.012843 -172.0 0.999905 -80.92 0.999905 -80.92 0.012842 -169.9
8.68010000 0.012866 -172.0 0.999905 -80.92 0.999905 -80.92 0.012866 -169.9
8.68015000 0.012890 -172.0 0.999905 -80.93 0.999905 -80.93 0.012890 -169.9
8.68020000 0.012914 -172.0 0.999904 -80.93 0.999904 -80.93 0.012914 -169.9
8.68025000 0.012939 -172.0 0.999904 -80.93 0.999904 -80.93 0.012938 -169.9
8.68030000 0.012963 -172.0 0.999904 -80.93 0.999904 -80.93 0.012962 -169.9
8.68035000 0.012987 -172.0 0.999903 -80.93 0.999903 -80.93 0.012986 -169.9
8.68040000 0.013011 -172.0 0.999903 -80.93 0.999903 -80.93 0.013011 -169.9
8.68045000 0.013036 -172.0 0.999903 -80.94 0.999903 -80.94 0.013035 -169.9
8.68050000 0.013060 -172.0 0.999902 -80.94 0.999902 -80.94 0.013060 -169.9
8.68055000 0.013085 -172.0 0.999902 -80.94 0.999902 -80.94 0.013084 -169.9
8.68060000 0.013109 -172.0 0.999902 -80.94 0.999902 -80.94 0.013109 -169.9
8.68065000 0.013134 -172.0 0.999901 -80.94 0.999901 -80.94 0.013134 -169.9
8.68070000 0.013159 -172.0 0.999901 -80.95 0.999901 -80.95 0.013158 -169.9
8.68075000 0.013184 -172.0 0.999900 -80.95 0.999900 -80.95 0.013183 -170.0
8.68080000 0.013209 -172.0 0.999900 -80.95 0.999900 -80.95 0.013208 -170.0
8.68085000 0.013234 -172.0 0.999900 -80.95 0.999900 -80.95 0.013233 -170.0
8.68090000 0.013259 -172.0 0.999899 -80.95 0.999899 -80.95 0.013258 -170.0
8.68095000 0.013284 -172.0 0.999899 -80.96 0.999899 -80.96 0.013283 -170.0
8.68100000 0.013309 -172.0 0.999899 -80.96 0.999899 -80.96 0.013309 -170.0
8.68105000 0.013335 -172.0 0.999898 -80.96 0.999898 -80.96 0.013334 -170.0
8.68110000 0.013360 -172.0 0.999898 -80.96 0.999898 -80.96 0.013360 -170.0
8.68115000 0.013385 -172.0 0.999898 -80.96 0.999898 -80.96 0.013385 -170.0
8.68120000 0.013411 -172.0 0.999897 -80.96 0.999897 -80.96 0.013411 -170.0
8.68125000 0.013437 -172.0 0.999897 -80.97 0.999897 -80.97 0.013436 -170.0
8.68130000 0.013463 -172.0 0.999896 -80.97 0.999896 -80.97 0.013462 -170.0
8.68135000 0.013488 -172.0 0.999896 -80.97 0.999896 -80.97 0.013488 -170.0
8.68140000 0.013514 -172.0 0.999896 -80.97 0.999896 -80.97 0.013514 -170.0
8.68145000 0.013540 -172.0 0.999895 -80.97 0.999895 -80.97 0.013540 -170.0
8.68150000 0.013567 -172.0 0.999895 -80.98 0.999895 -80.98 0.013566 -170.0
8.68155000 0.013593 -172.0 0.999894 -80.98 0.999894 -80.98 0.013592 -170.0
8.68160000 0.013619 -172.0 0.999894 -80.98 0.999894 -80.98 0.013619 -170.0
8.68165000 0.013645 -172.0 0.999894 -80.98 0.999894 -80.98 0.013645 -170.0
8.68170000 0.013672 -172.0 0.999893 -80.98 0.999893 -80.98 0.013672 -170.0
8.68175000 0.013699 -172.0 0.999893 -80.99 0.999893 -80.99 0.013698 -170.0
8.68180000 0.013725 -172.0 0.999892 -80.99 0.999892 -80.99 0.013725 -170.0
8.68185000 0.013752 -172.0 0.999892 -80.99 0.999892 -80.99 0.013751 -170.0
8.68190000 0.013779 -172.0 0.999892 -80.99 0.999892 -80.99 0.013778 -170.0
8.68195000 0.013806 -172.0 0.999891 -80.99 0.999891 -80.99 0.013805 -170.1
8.68200000 0.013833 -172.0 0.999891 -81.00 0.999891 -81.00 0.013832 -170.1
8.68205000 0.013860 -172.0 0.999890 -81.00 0.999890 -81.00 0.013859 -170.1
8.68210000 0.013887 -172.0 0.999890 -81.00 0.999890 -81.00 0.013887 -170.1
8.68215000 0.013914 -172.0 0.999890 -81.00 0.999890 -81.00 0.013914 -170.1
8.68220000 0.013942 -172.0 0.999889 -81.00 0.999889 -81.00 0.013941 -170.1
8.68225000 0.013969 -172.0 0.999889 -81.01 0.999889 -81.01 0.013969 -170.1
8.68230000 0.013997 -172.0 0.999888 -81.01 0.999888 -81.01 0.013996 -170.1
8.68235000 0.014025 -172.0 0.999888 -81.01 0.999888 -81.01 0.014024 -170.1
8.68240000 0.014052 -172.0 0.999888 -81.01 0.999888 -81.01 0.014052 -170.1
8.68245000 0.014080 -172.0 0.999887 -81.01 0.999887 -81.01 0.014080 -170.1
8.68250000 0.014108 -172.0 0.999887 -81.02 0.999887 -81.02 0.014108 -170.1
8.68255000 0.014136 -172.0 0.999886 -81.02 0.999886 -81.02 0.014136 -170.1
8.68260000 0.014165 -172.0 0.999886 -81.02 0.999886 -81.02 0.014164 -170.1
8.68265000 0.014193 -172.0 0.999885 -81.02 0.999885 -81.02 0.014192 -170.1
8.68270000 0.014221 -172.0 0.999885 -81.03 0.999885 -81.03 0.014221 -170.1
8.68275000 0.014250 -172.0 0.999884 -81.03 0.999884 -81.03 0.014249 -170.1
8.68280000 0.014278 -172.0 0.999884 -81.03 0.999884 -81.03 0.014278 -170.1
8.68285000 0.014307 -172.0 0.999884 -81.03 0.999884 -81.03 0.014307 -170.1
8.68290000 0.014336 -172.0 0.999883 -81.03 0.999883 -81.03 0.014335 -170.1
8.68295000 0.014365 -172.0 0.999883 -81.04 0.999883 -81.04 0.014364 -170.1
8.68300000 0.014394 -172.0 0.999882 -81.04 0.999882 -81.04 0.014393 -170.1
8.68305000 0.014423 -172.0 0.999882 -81.04 0.999882 -81.04 0.014422 -170.2
8.68310000 0.014452 -172.0 0.999881 -81.04 0.999881 -81.04 0.014452 -170.2
8.68315000 0.014481 -172.0 0.999881 -81.04 0.999881 -81.04 0.014481 -170.2
8.68320000 0.014511 -172.0 0.999880 -81.05 0.999880 -81.05 0.014510 -170.2
8.68325000 0.014540 -172.0 0.999880 -81.05 0.999880 -81.05 0.014540 -170.2
8.68330000 0.014570 -172.0 0.999879 -81.05 0.999879 -81.05 0.014570 -170.2
8.68335000 0.014600 -172.0 0.999879 -81.05 0.999879 -81.05 0.014599 -170.2
8.68340000 0.014630 -172.0 0.999878 -81.06 0.999878 -81.06 0.014629 -170.2
8.68345000 0.014660 -172.0 0.999878 -81.06 0.999878 -81.06 0.014659 -170.2
8.68350000 0.014690 -172.0 0.999878 -81.06 0.999878 -81.06 0.014689 -170.2
8.68355000 0.014720 -172.0 0.999877 -81.06 0.999877 -81.06 0.014720 -170.2
8.68360000 0.014750 -172.0 0.999877 -81.06 0.999877 -81.06 0.014750 -170.2
8.68365000 0.014781 -172.0 0.999876 -81.07 0.999876 -81.07 0.014780 -170.2
8.68370000 0.014811 -172.0 0.999876 -81.07 0.999876 -81.07 0.014811 -170.2
8.68375000 0.014842 -172.0 0.999875 -81.07 0.999875 -81.07 0.014842 -170.2
8.68380000 0.014873 -172.0 0.999875 -81.07 0.999875 -81.07 0.014872 -170.2
8.68385000 0.014904 -172.0 0.999874 -81.08 0.999874 -81.08 0.014903 -170.2
8.68390000 0.014935 -172.0 0.999874 -81.08 0.999874 -81.08 0.014934 -170.2
8.68395000 0.014966 -172.0 0.999873 -81.08 0.999873 -81.08 0.014965 -170.2
8.68400000 0.014997 -172.0 0.999873 -81.08 0.999873 -81.08 0.014997 -170.2
8.68405000 0.015028 -172.0 0.999872 -81.08 0.999872 -81.08 0.015028 -170.2
8.68410000 0.015060 -172.0 0.999871 -81.09 0.999871 -81.09 0.015059 -170.2
8.68415000 0.015092 -172.0 0.999871 -81.09 0.999871 -81.09 0.015091 -170.3
8.68420000 0.015123 -172.0 0.999870 -81.09 0.999870 -81.09 0.015123 -170.3
8.68425000 0.015155 -172.0 0.999870 -81.09 0.999870 -81.09 0.015155 -170.3
8.68430000 0.015187 -172.0 0.999869 -81.10 0.999869 -81.10 0.015187 -170.3
8.68435000 0.015219 -172.0 0.999869 -81.10 0.999869 -81.10 0.015219 -170.3
8.68440000 0.015251 -172.0 0.999868 -81.10 0.999868 -81.10 0.015251 -170.3
8.68445000 0.015284 -172.0 0.999868 -81.10 0.999868 -81.10 0.015283 -170.3
8.68450000 0.015316 -172.0 0.999867 -81.10 0.999867 -81.10 0.015316 -170.3
8.68455000 0.015349 -172.0 0.999867 -81.11 0.999867 -81.11 0.015348 -170.3
8.68460000 0.015382 -172.0 0.999866 -81.11 0.999866 -81.11 0.015381 -170.3
8.68465000 0.015415 -172.0 0.999866 -81.11 0.999866 -81.11 0.015414 -170.3
8.68470000 0.015448 -172.0 0.999865 -81.11 0.999865 -81.11 0.015447 -170.3
8.68475000 0.015481 -172.0 0.999864 -81.12 0.999864 -81.12 0.015480 -170.3
8.68480000 0.015514 -172.0 0.999864 -81.12 0.999864 -81.12 0.015513 -170.3
8.68485000 0.015547 -172.0 0.999863 -81.12 0.999863 -81.12 0.015547 -170.3
8.68490000 0.015581 -172.0 0.999863 -81.12 0.999863 -81.12 0.015580 -170.3
8.68495000 0.015615 -172.0 0.999862 -81.13 0.999862 -81.13 0.015614 -170.3
8.68500000 0.015648 -172.0 0.999862 -81.13 0.999862 -81.13 0.015648 -170.3
8.68505000 0.015682 -172.0 0.999861 -81.13 0.999861 -81.13 0.015682 -170.3
8.68510000 0.015716 -172.0 0.999860 -81.13 0.999860 -81.13 0.015716 -170.3
8.68515000 0.015751 -172.0 0.999860 -81.14 0.999860 -81.14 0.015750 -170.3
8.68520000 0.015785 -172.0 0.999859 -81.14 0.999859 -81.14 0.015784 -170.4
8.68525000 0.015819 -172.0 0.999859 -81.14 0.999859 -81.14 0.015819 -170.4
8.68530000 0.015854 -172.0 0.999858 -81.14 0.999858 -81.14 0.015854 -170.4
8.68535000 0.015889 -172.0 0.999857 -81.15 0.999857 -81.15 0.015888 -170.4
8.68540000 0.015924 -172.0 0.999857 -81.15 0.999857 -81.15 0.015923 -170.4
8.68545000 0.015959 -172.0 0.999856 -81.15 0.999856 -81.15 0.015958 -170.4
8.68550000 0.015994 -172.0 0.999856 -81.15 0.999856 -81.15 0.015994 -170.4
8.68555000 0.016029 -172.0 0.999855 -81.16 0.999855 -81.16 0.016029 -170.4
8.68560000 0.016065 -172.0 0.999854 -81.16 0.999854 -81.16 0.016064 -170.4
8.68565000 0.016101 -172.0 0.999854 -81.16 0.999854 -81.16 0.016100 -170.4
8.68570000 0.016136 -172.0 0.999853 -81.16 0.999853 -81.16 0.016136 -170.4
8.68575000 0.016172 -172.0 0.999852 -81.17 0.999852 -81.17 0.016172 -170.4
8.68580000 0.016209 -172.0 0.999852 -81.17 0.999852 -81.17 0.016208 -170.4
8.68585000 0.016245 -172.0 0.999851 -81.17 0.999851 -81.17 0.016244 -170.4
8.68590000 0.016281 -172.0 0.999851 -81.17 0.999851 -81.17 0.016281 -170.4
8.68595000 0.016318 -172.0 0.999850 -81.18 0.999850 -81.18 0.016317 -170.4
8.68600000 0.016355 -172.0 0.999849 -81.18 0.999849 -81.18 0.016354 -170.4
8.68605000 0.016391 -172.0 0.999849 -81.18 0.999849 -81.18 0.016391 -170.4
8.68610000 0.016429 -172.0 0.999848 -81.18 0.999848 -81.18 0.016428 -170.4
8.68615000 0.016466 -172.0 0.999847 -81.19 0.999847 -81.19 0.016465 -170.4
8.68620000 0.016503 -172.0 0.999847 -81.19 0.999847 -81.19 0.016503 -170.5
8.68625000 0.016541 -172.0 0.999846 -81.19 0.999846 -81.19 0.016540 -170.5
8.68630000 0.016578 -172.0 0.999845 -81.19 0.999845 -81.19 0.016578 -170.5
8.68635000 0.016616 -172.0 0.999844 -81.20 0.999844 -81.20 0.016616 -170.5
8.68640000 0.016654 -172.0 0.999844 -81.20 0.999844 -81.20 0.016654 -170.5
8.68645000 0.016693 -172.0 0.999843 -81.20 0.999843 -81.20 0.016692 -170.5
8.68650000 0.016731 -172.0 0.999842 -81.20 0.999842 -81.20 0.016730 -170.5
8.68655000 0.016769 -172.0 0.999842 -81.21 0.999842 -81.21 0.016769 -170.5
8.68660000 0.016808 -172.0 0.999841 -81.21 0.999841 -81.21 0.016808 -170.5
8.68665000 0.016847 -172.0 0.999840 -81.21 0.999840 -81.21 0.016846 -170.5
8.68670000 0.016886 -172.0 0.999840 -81.22 0.999840 -81.22 0.016886 -170.5
8.68675000 0.016925 -172.0 0.999839 -81.22 0.999839 -81.22 0.016925 -170.5
8.68680000 0.016965 -172.0 0.999838 -81.22 0.999838 -81.22 0.016964 -170.5
8.68685000 0.017004 -172.0 0.999837 -81.22 0.999837 -81.22 0.017004 -170.5
8.68690000 0.017044 -172.0 0.999837 -81.23 0.999837 -81.23 0.017044 -170.5
8.68695000 0.017084 -172.0 0.999836 -81.23 0.999836 -81.23 0.017084 -170.5
8.68700000 0.017124 -172.0 0.999835 -81.23 0.999835 -81.23 0.017124 -170.5
8.68705000 0.017165 -172.0 0.999834 -81.23 0.999834 -81.23 0.017164 -170.5
8.68710000 0.017205 -172.0 0.999834 -81.24 0.999834 -81.24 0.017205 -170.5
8.68715000 0.017246 -172.0 0.999833 -81.24 0.999833 -81.24 0.017245 -170.5
8.68720000 0.017287 -172.0 0.999832 -81.24 0.999832 -81.24 0.017286 -170.6
8.68725000 0.017328 -172.0 0.999831 -81.25 0.999831 -81.25 0.017327 -170.6
8.68730000 0.017369 -172.0 0.999830 -81.25 0.999830 -81.25 0.017368 -170.6
8.68735000 0.017411 -172.0 0.999830 -81.25 0.999830 -81.25 0.017410 -170.6
8.68740000 0.017452 -172.0 0.999829 -81.25 0.999829 -81.25 0.017452 -170.6
8.68745000 0.017494 -172.0 0.999828 -81.26 0.999828 -81.26 0.017493 -170.6
8.68750000 0.017536 -172.0 0.999827 -81.26 0.999827 -81.26 0.017535 -170.6
8.68755000 0.017578 -172.0 0.999826 -81.26 0.999826 -81.26 0.017578 -170.6
8.68760000 0.017621 -172.0 0.999826 -81.27 0.999826 -81.27 0.017620 -170.6
8.68765000 0.017663 -172.0 0.999825 -81.27 0.999825 -81.27 0.017663 -170.6
8.68770000 0.017706 -172.0 0.999824 -81.27 0.999824 -81.27 0.017706 -170.6
8.68775000 0.017749 -172.0 0.999823 -81.27 0.999823 -81.27 0.017749 -170.6
8.68780000 0.017793 -172.0 0.999822 -81.28 0.999822 -81.28 0.017792 -170.6
8.68785000 0.017836 -172.1 0.999821 -81.28 0.999821 -81.28 0.017836 -170.6
8.68790000 0.017880 -172.1 0.999821 -81.28 0.999821 -81.28 0.017879 -170.6
8.68795000 0.017924 -172.1 0.999820 -81.29 0.999820 -81.29 0.017923 -170.6
8.68800000 0.017968 -172.1 0.999819 -81.29 0.999819 -81.29 0.017967 -170.6
8.68805000 0.018012 -172.1 0.999818 -81.29 0.999818 -81.29 0.018012 -170.6
8.68810000 0.018057 -172.1 0.999817 -81.30 0.999817 -81.30 0.018056 -170.7
8.68815000 0.018102 -172.1 0.999816 -81.30 0.999816 -81.30 0.018101 -170.7
8.68820000 0.018147 -172.1 0.999815 -81.30 0.999815 -81.30 0.018146 -170.7
8.68825000 0.018192 -172.1 0.999814 -81.30 0.999814 -81.30 0.018191 -170.7
8.68830000 0.018237 -172.1 0.999813 -81.31 0.999813 -81.31 0.018237 -170.7
8.68835000 0.018283 -172.1 0.999812 -81.31 0.999812 -81.31 0.018282 -170.7
8.68840000 0.018329 -172.1 0.999812 -81.31 0.999812 -81.31 0.018328 -170.7
8.68845000 0.018375 -172.1 0.999811 -81.32 0.999811 -81.32 0.018374 -170.7
8.68850000 0.018421 -172.1 0.999810 -81.32 0.999810 -81.32 0.018421 -170.7
8.68855000 0.018468 -172.1 0.999809 -81.32 0.999809 -81.32 0.018467 -170.7
8.68860000 0.018515 -172.1 0.999808 -81.33 0.999808 -81.33 0.018514 -170.7
8.68865000 0.018562 -172.1 0.999807 -81.33 0.999807 -81.33 0.018561 -170.7
8.68870000 0.018609 -172.1 0.999806 -81.33 0.999806 -81.33 0.018609 -170.7
8.68875000 0.018657 -172.1 0.999805 -81.34 0.999805 -81.34 0.018656 -170.7
8.68880000 0.018705 -172.1 0.999804 -81.34 0.999804 -81.34 0.018704 -170.7
8.68885000 0.018753 -172.1 0.999803 -81.34 0.999803 -81.34 0.018752 -170.7
8.68890000 0.018801 -172.1 0.999802 -81.35 0.999802 -81.35 0.018800 -170.7
8.68895000 0.018850 -172.1 0.999801 -81.35 0.999801 -81.35 0.018849 -170.8
8.68900000 0.018899 -172.1 0.999800 -81.35 0.999800 -81.35 0.018898 -170.8
8.68905000 0.018948 -172.1 0.999799 -81.36 0.999799 -81.36 0.018947 -170.8
8.68910000 0.018997 -172.1 0.999798 -81.36 0.999798 -81.36 0.018996 -170.8
8.68915000 0.019047 -172.1 0.999797 -81.36 0.999797 -81.36 0.019046 -170.8
8.68920000 0.019096 -172.1 0.999796 -81.37 0.999796 -81.37 0.019096 -170.8
8.68925000 0.019147 -172.1 0.999795 -81.37 0.999795 -81.37 0.019146 -170.8
8.68930000 0.019197 -172.1 0.999794 -81.37 0.999794 -81.37 0.019196 -170.8
8.68935000 0.019248 -172.1 0.999793 -81.38 0.999793 -81.38 0.019247 -170.8
8.68940000 0.019299 -172.1 0.999791 -81.38 0.999791 -81.38 0.019298 -170.8
8.68945000 0.019350 -172.1 0.999790 -81.38 0.999790 -81.38 0.019349 -170.8
8.68950000 0.019401 -172.1 0.999789 -81.39 0.999789 -81.39 0.019401 -170.8
8.68955000 0.019453 -172.1 0.999788 -81.39 0.999788 -81.39 0.019453 -170.8
8.68960000 0.019505 -172.1 0.999787 -81.39 0.999787 -81.39 0.019505 -170.8
8.68965000 0.019558 -172.1 0.999786 -81.40 0.999786 -81.40 0.019557 -170.8
8.68970000 0.019610 -172.1 0.999785 -81.40 0.999785 -81.40 0.019610 -170.8
8.68975000 0.019663 -172.1 0.999784 -81.40 0.999784 -81.40 0.019663 -170.9
8.68980000 0.019717 -172.1 0.999782 -81.41 0.999782 -81.41 0.019716 -170.9
8.68985000 0.019770 -172.1 0.999781 -81.41 0.999781 -81.41 0.019770 -170.9
8.68990000 0.019824 -172.1 0.999780 -81.41 0.999780 -81.41 0.019823 -170.9
8.68995000 0.019878 -172.1 0.999779 -81.42 0.999779 -81.42 0.019878 -170.9
8.69000000 0.019933 -172.1 0.999778 -81.42 0.999778 -81.42 0.019932 -170.9
8.69005000 0.019988 -172.1 0.999776 -81.42 0.999776 -81.42 0.019987 -170.9
8.69010000 0.020043 -172.1 0.999775 -81.43 0.999775 -81.43 0.020042 -170.9
8.69015000 0.020098 -172.1 0.999774 -81.43 0.999774 -81.43 0.020097 -170.9
8.69020000 0.020154 -172.1 0.999773 -81.43 0.999773 -81.43 0.020153 -170.9
8.69025000 0.020210 -172.1 0.999772 -81.44 0.999772 -81.44 0.020209 -170.9
8.69030000 0.020266 -172.1 0.999770 -81.44 0.999770 -81.44 0.020266 -170.9
8.69035000 0.020323 -172.1 0.999769 -81.45 0.999769 -81.45 0.020322 -170.9
8.69040000 0.020380 -172.1 0.999768 -81.45 0.999768 -81.45 0.020379 -170.9
8.69045000 0.020438 -172.1 0.999766 -81.45 0.999766 -81.45 0.020437 -170.9
8.69050000 0.020495 -172.1 0.999765 -81.46 0.999765 -81.46 0.020494 -170.9
8.69055000 0.020553 -172.1 0.999764 -81.46 0.999764 -81.46 0.020553 -171.0
8.69060000 0.020612 -172.1 0.999762 -81.46 0.999762 -81.46 0.020611 -171.0
8.69065000 0.020671 -172.1 0.999761 -81.47 0.999761 -81.47 0.020670 -171.0
8.69070000 0.020730 -172.1 0.999760 -81.47 0.999760 -81.47 0.020729 -171.0
8.69075000 0.020789 -172.1 0.999758 -81.48 0.999758 -81.48 0.020788 -171.0
8.69080000 0.020849 -172.1 0.999757 -81.48 0.999757 -81.48 0.020848 -171.0
8.69085000 0.020909 -172.1 0.999756 -81.48 0.999756 -81.48 0.020908 -171.0
8.69090000 0.020970 -172.1 0.999754 -81.49 0.999754 -81.49 0.020969 -171.0
8.69095000 0.021031 -172.1 0.999753 -81.49 0.999753 -81.49 0.021030 -171.0
8.69100000 0.021092 -172.1 0.999751 -81.50 0.999751 -81.50 0.021091 -171.0
8.69105000 0.021154 -172.1 0.999750 -81.50 0.999750 -81.50 0.021153 -171.0
8.69110000 0.021216 -172.1 0.999748 -81.50 0.999748 -81.50 0.021215 -171.0
8.69115000 0.021278 -172.1 0.999747 -81.51 0.999747 -81.51 0.021278 -171.0
8.69120000 0.021341 -172.1 0.999745 -81.51 0.999745 -81.51 0.021340 -171.0
8.69125000 0.021405 -172.1 0.999744 -81.52 0.999744 -81.52 0.021404 -171.1
8.69130000 0.021468 -172.1 0.999742 -81.52 0.999742 -81.52 0.021467 -171.1
8.69135000 0.021532 -172.1 0.999741 -81.52 0.999741 -81.52 0.021532 -171.1
8.69140000 0.021597 -172.1 0.999739 -81.53 0.999739 -81.53 0.021596 -171.1
8.69145000 0.021662 -172.1 0.999738 -81.53 0.999738 -81.53 0.021661 -171.1
8.69150000 0.021727 -172.1 0.999736 -81.54 0.999736 -81.54 0.021726 -171.1
8.69155000 0.021793 -172.1 0.999735 -81.54 0.999735 -81.54 0.021792 -171.1
8.69160000 0.021859 -172.1 0.999733 -81.55 0.999733 -81.55 0.021858 -171.1
8.69165000 0.021926 -172.1 0.999731 -81.55 0.999731 -81.55 0.021925 -171.1
8.69170000 0.021993 -172.1 0.999730 -81.55 0.999730 -81.55 0.021992 -171.1
8.69175000 0.022060 -172.1 0.999728 -81.56 0.999728 -81.56 0.022059 -171.1
8.69180000 0.022128 -172.1 0.999727 -81.56 0.999727 -81.56 0.022127 -171.1
8.69185000 0.022197 -172.1 0.999725 -81.57 0.999725 -81.57 0.022196 -171.1
8.69190000 0.022266 -172.1 0.999723 -81.57 0.999723 -81.57 0.022265 -171.1
8.69195000 0.022335 -172.1 0.999721 -81.58 0.999721 -81.58 0.022334 -171.2
8.69200000 0.022405 -172.1 0.999720 -81.58 0.999720 -81.58 0.022404 -171.2
8.69205000 0.022475 -172.1 0.999718 -81.59 0.999718 -81.59 0.022474 -171.2
8.69210000 0.022546 -172.1 0.999716 -81.59 0.999716 -81.59 0.022545 -171.2
8.69215000 0.022617 -172.1 0.999714 -81.59 0.999714 -81.59 0.022616 -171.2
8.69220000 0.022689 -172.1 0.999713 -81.60 0.999713 -81.60 0.022688 -171.2
8.69225000 0.022761 -172.1 0.999711 -81.60 0.999711 -81.60 0.022760 -171.2
8.69230000 0.022834 -172.2 0.999709 -81.61 0.999709 -81.61 0.022833 -171.2
8.69235000 0.022907 -172.2 0.999707 -81.61 0.999707 -81.61 0.022906 -171.2
8.69240000 0.022981 -172.2 0.999705 -81.62 0.999705 -81.62 0.022980 -171.2
8.69245000 0.023055 -172.2 0.999703 -81.62 0.999703 -81.62 0.023054 -171.2
8.69250000 0.023130 -172.2 0.999701 -81.63 0.999701 -81.63 0.023129 -171.2
8.69255000 0.023205 -172.2 0.999699 -81.63 0.999699 -81.63 0.023204 -171.2
8.69260000 0.023281 -172.2 0.999697 -81.64 0.999697 -81.64 0.023280 -171.3
8.69265000 0.023357 -172.2 0.999695 -81.64 0.999695 -81.64 0.023356 -171.3
8.69270000 0.023434 -172.2 0.999693 -81.65 0.999693 -81.65 0.023433 -171.3
8.69275000 0.023512 -172.2 0.999691 -81.65 0.999691 -81.65 0.023511 -171.3
8.69280000 0.023590 -172.2 0.999689 -81.66 0.999689 -81.66 0.023589 -171.3
8.69285000 0.023669 -172.2 0.999687 -81.66 0.999687 -81.66 0.023668 -171.3
8.69290000 0.023748 -172.2 0.999685 -81.67 0.999685 -81.67 0.023747 -171.3
8.69295000 0.023828 -172.2 0.999683 -81.67 0.999683 -81.67 0.023827 -171.3
8.69300000 0.023908 -172.2 0.999681 -81.68 0.999681 -81.68 0.023907 -171.3
8.69305000 0.023989 -172.2 0.999679 -81.68 0.999679 -81.68 0.023988 -171.3
8.69310000 0.024071 -172.2 0.999677 -81.69 0.999677 -81.69 0.024070 -171.3
8.69315000 0.024153 -172.2 0.999674 -81.69 0.999674 -81.69 0.024152 -171.3
8.69320000 0.024236 -172.2 0.999672 -81.70 0.999672 -81.70 0.024235 -171.4
8.69325000 0.024320 -172.2 0.999670 -81.70 0.999670 -81.70 0.024319 -171.4
8.69330000 0.024404 -172.2 0.999668 -81.71 0.999668 -81.71 0.024403 -171.4
8.69335000 0.024489 -172.2 0.999665 -81.71 0.999665 -81.71 0.024488 -171.4
8.69340000 0.024574 -172.2 0.999663 -81.72 0.999663 -81.72 0.024573 -171.4
8.69345000 0.024660 -172.2 0.999660 -81.72 0.999660 -81.72 0.024659 -171.4
8.69350000 0.024747 -172.2 0.999658 -81.73 0.999658 -81.73 0.024746 -171.4
8.69355000 0.024835 -172.2 0.999656 -81.73 0.999656 -81.73 0.024834 -171.4
8.69360000 0.024923 -172.2 0.999653 -81.74 0.999653 -81.74 0.024922 -171.4
8.69365000 0.025012 -172.2 0.999651 -81.75 0.999651 -81.75 0.025011 -171.4
8.69370000 0.025101 -172.2 0.999648 -81.75 0.999648 -81.75 0.025100 -171.4
8.69375000 0.025192 -172.2 0.999646 -81.76 0.999646 -81.76 0.025191 -171.5
8.69380000 0.025283 -172.2 0.999643 -81.76 0.999643 -81.76 0.025282 -171.5
8.69385000 0.025375 -172.2 0.999640 -81.77 0.999640 -81.77 0.025374 -171.5
8.69390000 0.025467 -172.2 0.999638 -81.77 0.999638 -81.77 0.025466 -171.5
8.69395000 0.025561 -172.2 0.999635 -81.78 0.999635 -81.78 0.025560 -171.5
8.69400000 0.025655 -172.2 0.999632 -81.79 0.999632 -81.79 0.025654 -171.5
8.69405000 0.025750 -172.2 0.999630 -81.79 0.999630 -81.79 0.025749 -171.5
8.69410000 0.025846 -172.2 0.999627 -81.80 0.999627 -81.80 0.025844 -171.5
8.69415000 0.025942 -172.2 0.999624 -81.80 0.999624 -81.80 0.025941 -171.5
8.69420000 0.026039 -172.2 0.999621 -81.81 0.999621 -81.81 0.026038 -171.5
8.69425000 0.026138 -172.2 0.999618 -81.82 0.999618 -81.82 0.026136 -171.6
8.69430000 0.026237 -172.3 0.999616 -81.82 0.999616 -81.82 0.026235 -171.6
8.69435000 0.026336 -172.3 0.999613 -81.83 0.999613 -81.83 0.026335 -171.6
8.69440000 0.026437 -172.3 0.999610 -81.83 0.999610 -81.83 0.026436 -171.6
8.69445000 0.026539 -172.3 0.999607 -81.84 0.999607 -81.84 0.026538 -171.6
8.69450000 0.026641 -172.3 0.999604 -81.85 0.999604 -81.85 0.026640 -171.6
8.69455000 0.026745 -172.3 0.999600 -81.85 0.999600 -81.85 0.026743 -171.6
8.69460000 0.026849 -172.3 0.999597 -81.86 0.999597 -81.86 0.026848 -171.6
8.69465000 0.026954 -172.3 0.999594 -81.87 0.999594 -81.87 0.026953 -171.6
8.69470000 0.027061 -172.3 0.999591 -81.87 0.999591 -81.87 0.027059 -171.6
8.69475000 0.027168 -172.3 0.999588 -81.88 0.999588 -81.88 0.027166 -171.7
8.69480000 0.027276 -172.3 0.999584 -81.89 0.999584 -81.89 0.027275 -171.7
8.69485000 0.027385 -172.3 0.999581 -81.89 0.999581 -81.89 0.027384 -171.7
8.69490000 0.027495 -172.3 0.999578 -81.90 0.999578 -81.90 0.027494 -171.7
8.69495000 0.027606 -172.3 0.999574 -81.91 0.999574 -81.91 0.027605 -171.7
8.69500000 0.027718 -172.3 0.999571 -81.91 0.999571 -81.91 0.027717 -171.7
8.69505000 0.027832 -172.3 0.999567 -81.92 0.999567 -81.92 0.027830 -171.7
8.69510000 0.027946 -172.3 0.999564 -81.93 0.999564 -81.93 0.027945 -171.7
8.69515000 0.028061 -172.3 0.999560 -81.93 0.999560 -81.93 0.028060 -171.7
8.69520000 0.028178 -172.3 0.999556 -81.94 0.999556 -81.94 0.028177 -171.7
8.69525000 0.028296 -172.3 0.999552 -81.95 0.999552 -81.95 0.028294 -171.8
8.69530000 0.028414 -172.3 0.999549 -81.96 0.999549 -81.96 0.028413 -171.8
8.69535000 0.028534 -172.3 0.999545 -81.96 0.999545 -81.96 0.028533 -171.8
8.69540000 0.028655 -172.3 0.999541 -81.97 0.999541 -81.97 0.028654 -171.8
8.69545000 0.028778 -172.3 0.999537 -81.98 0.999537 -81.98 0.028776 -171.8
8.69550000 0.028901 -172.3 0.999533 -81.99 0.999533 -81.99 0.028900 -171.8
8.69555000 0.029026 -172.3 0.999529 -81.99 0.999529 -81.99 0.029024 -171.8
8.69560000 0.029152 -172.4 0.999525 -82.00 0.999525 -82.00 0.029150 -171.8
8.69565000 0.029279 -172.4 0.999521 -82.01 0.999521 -82.01 0.029278 -171.9
8.69570000 0.029408 -172.4 0.999516 -82.02 0.999516 -82.02 0.029406 -171.9
8.69575000 0.029538 -172.4 0.999512 -82.02 0.999512 -82.02 0.029536 -171.9
8.69580000 0.029669 -172.4 0.999508 -82.03 0.999508 -82.03 0.029667 -171.9
8.69585000 0.029801 -172.4 0.999503 -82.04 0.999503 -82.04 0.029800 -171.9
8.69590000 0.029935 -172.4 0.999499 -82.05 0.999499 -82.05 0.029934 -171.9
8.69595000 0.030071 -172.4 0.999494 -82.06 0.999494 -82.06 0.030069 -171.9
8.69600000 0.030208 -172.4 0.999489 -82.06 0.999489 -82.06 0.030206 -171.9
8.69605000 0.030346 -172.4 0.999485 -82.07 0.999485 -82.07 0.030344 -172.0
8.69610000 0.030486 -172.4 0.999480 -82.08 0.999480 -82.08 0.030484 -172.0
8.69615000 0.030627 -172.4 0.999475 -82.09 0.999475 -82.09 0.030625 -172.0
8.69620000 0.030770 -172.4 0.999470 -82.10 0.999470 -82.10 0.030768 -172.0
8.69625000 0.030914 -172.4 0.999465 -82.11 0.999465 -82.11 0.030912 -172.0
8.69630000 0.031060 -172.4 0.999460 -82.12 0.999460 -82.12 0.031058 -172.0
8.69635000 0.031208 -172.4 0.999455 -82.13 0.999455 -82.13 0.031206 -172.0
8.69640000 0.031357 -172.4 0.999449 -82.13 0.999449 -82.13 0.031355 -172.0
8.69645000 0.031508 -172.4 0.999444 -82.14 0.999444 -82.14 0.031506 -172.1
8.69650000 0.031660 -172.4 0.999438 -82.15 0.999438 -82.15 0.031659 -172.1
8.69655000 0.031815 -172.5 0.999433 -82.16 0.999433 -82.16 0.031813 -172.1
8.69660000 0.031971 -172.5 0.999427 -82.17 0.999427 -82.17 0.031969 -172.1
8.69665000 0.032129 -172.5 0.999422 -82.18 0.999422 -82.18 0.032127 -172.1
8.69670000 0.032289 -172.5 0.999416 -82.19 0.999416 -82.19 0.032287 -172.1
8.69675000 0.032450 -172.5 0.999410 -82.20 0.999410 -82.20 0.032449 -172.1
8.69680000 0.032614 -172.5 0.999404 -82.21 0.999404 -82.21 0.032612 -172.2
8.69685000 0.032780 -172.5 0.999398 -82.22 0.999398 -82.22 0.032778 -172.2
8.69690000 0.032947 -172.5 0.999391 -82.23 0.999391 -82.23 0.032945 -172.2
8.69695000 0.033117 -172.5 0.999385 -82.24 0.999385 -82.24 0.033115 -172.2
8.69700000 0.033288 -172.5 0.999378 -82.25 0.999378 -82.25 0.033287 -172.2
8.69705000 0.033462 -172.5 0.999372 -82.26 0.999372 -82.26 0.033460 -172.2
8.69710000 0.033638 -172.5 0.999365 -82.27 0.999365 -82.27 0.033636 -172.2
8.69715000 0.033816 -172.5 0.999358 -82.28 0.999358 -82.28 0.033814 -172.3
8.69720000 0.033997 -172.5 0.999351 -82.29 0.999351 -82.29 0.033995 -172.3
8.69725000 0.034179 -172.5 0.999344 -82.30 0.999344 -82.30 0.034177 -172.3
8.69730000 0.034364 -172.6 0.999337 -82.32 0.999337 -82.32 0.034362 -172.3
8.69735000 0.034552 -172.6 0.999330 -82.33 0.999330 -82.33 0.034550 -172.3
8.69740000 0.034742 -172.6 0.999322 -82.34 0.999322 -82.34 0.034740 -172.3
8.69745000 0.034934 -172.6 0.999315 -82.35 0.999315 -82.35 0.034932 -172.4
8.69750000 0.035129 -172.6 0.999307 -82.36 0.999307 -82.36 0.035127 -172.4
8.69755000 0.035326 -172.6 0.999299 -82.37 0.999299 -82.37 0.035324 -172.4
8.69760000 0.035526 -172.6 0.999291 -82.38 0.999291 -82.38 0.035524 -172.4
8.69765000 0.035729 -172.6 0.999283 -82.40 0.999283 -82.40 0.035727 -172.4
8.69770000 0.035935 -172.6 0.999274 -82.41 0.999274 -82.41 0.035933 -172.4
8.69775000 0.036143 -172.6 0.999266 -82.42 0.999266 -82.42 0.036141 -172.5
8.69780000 0.036355 -172.6 0.999257 -82.43 0.999257 -82.43 0.036352 -172.5
8.69785000 0.036569 -172.6 0.999248 -82.45 0.999248 -82.45 0.036567 -172.5
8.69790000 0.036786 -172.7 0.999239 -82.46 0.999239 -82.46 0.036784 -172.5
8.69795000 0.037007 -172.7 0.999229 -82.47 0.999229 -82.47 0.037004 -172.5
8.69800000 0.037230 -172.7 0.999220 -82.49 0.999220 -82.49 0.037228 -172.6
8.69805000 0.037457 -172.7 0.999210 -82.50 0.999210 -82.50 0.037455 -172.6
8.69810000 0.037687 -172.7 0.999200 -82.51 0.999200 -82.51 0.037685 -172.6
8.69815000 0.037921 -172.7 0.999190 -82.53 0.999190 -82.53 0.037918 -172.6
8.69820000 0.038158 -172.7 0.999180 -82.54 0.999180 -82.54 0.038155 -172.6
8.69825000 0.038398 -172.7 0.999169 -82.56 0.999169 -82.56 0.038396 -172.7
8.69830000 0.038642 -172.7 0.999159 -82.57 0.999159 -82.57 0.038640 -172.7
8.69835000 0.038890 -172.8 0.999148 -82.58 0.999148 -82.58 0.038888 -172.7
8.69840000 0.039142 -172.8 0.999136 -82.60 0.999136 -82.60 0.039140 -172.7
8.69845000 0.039398 -172.8 0.999125 -82.61 0.999125 -82.61 0.039395 -172.7
8.69850000 0.039657 -172.8 0.999113 -82.63 0.999113 -82.63 0.039655 -172.8
8.69855000 0.039921 -172.8 0.999101 -82.65 0.999101 -82.65 0.039919 -172.8
8.69860000 0.040189 -172.8 0.999089 -82.66 0.999089 -82.66 0.040187 -172.8
8.69865000 0.040461 -172.8 0.999076 -82.68 0.999076 -82.68 0.040459 -172.8
8.69870000 0.040738 -172.8 0.999063 -82.69 0.999063 -82.69 0.040736 -172.8
8.69875000 0.041020 -172.9 0.999050 -82.71 0.999050 -82.71 0.041017 -172.9
8.69880000 0.041306 -172.9 0.999036 -82.73 0.999036 -82.73 0.041303 -172.9
8.69885000 0.041596 -172.9 0.999023 -82.74 0.999023 -82.74 0.041594 -172.9
8.69890000 0.041892 -172.9 0.999008 -82.76 0.999008 -82.76 0.041889 -172.9
8.69895000 0.042193 -172.9 0.998994 -82.78 0.998994 -82.78 0.042190 -173.0
8.69900000 0.042499 -172.9 0.998979 -82.80 0.998979 -82.80 0.042496 -173.0
8.69905000 0.042810 -172.9 0.998964 -82.82 0.998964 -82.82 0.042807 -173.0
8.69910000 0.043127 -173.0 0.998948 -82.83 0.998948 -82.83 0.043124 -173.0
8.69915000 0.043450 -173.0 0.998932 -82.85 0.998932 -82.85 0.043447 -173.1
8.69920000 0.043778 -173.0 0.998915 -82.87 0.998915 -82.87 0.043775 -173.1
8.69925000 0.044112 -173.0 0.998898 -82.89 0.998898 -82.89 0.044109 -173.1
8.69930000 0.044453 -173.0 0.998881 -82.91 0.998881 -82.91 0.044450 -173.1
8.69935000 0.044799 -173.0 0.998863 -82.93 0.998863 -82.93 0.044796 -173.2
8.69940000 0.045152 -173.1 0.998845 -82.95 0.998845 -82.95 0.045149 -173.2
8.69945000 0.045512 -173.1 0.998826 -82.97 0.998826 -82.97 0.045509 -173.2
8.69950000 0.045879 -173.1 0.998806 -83.00 0.998806 -83.00 0.045876 -173.3
8.69955000 0.046253 -173.1 0.998787 -83.02 0.998787 -83.02 0.046250 -173.3
8.69960000 0.046635 -173.1 0.998766 -83.04 0.998766 -83.04 0.046631 -173.3
8.69965000 0.047024 -173.1 0.998745 -83.06 0.998745 -83.06 0.047020 -173.3