! Sonnet Data File
! From: emgraph Version : 16.52
! From Emgraph Data: 171117_Xmon_fullysym
! Data File Written: 11/20/2017 09:06:07
!< HDATE 11/17/2017 17:36:39
!< MDATE 11/17/2017 17:37:32
!< PARAMS
!< Lj = 11.0
!< Gap = 6.0
!< Pwid = 2000.0
!< Width = 10.0
!< END PARAMS
# GHZ S MA R 50.90000
8.660000000000000 0.0250082996705 10.528763797983 0.9996831492622 -79.46692230853 0.9996831492614 -79.46692230871 0.0250083045289 10.551761038234
!< P1 F=8.66 Eeff=(6.4468543 -2.9785e-5) Z0=(51.7979628 1.19074e-4) R=0.0 C=0.0 
!< P2 F=8.66 Eeff=(6.4468543 -2.9785e-5) Z0=(51.7979628 1.19074e-4) R=0.0 C=0.0 
8.660050000000000 0.0250058891261 10.528156977028 0.9996832075110 -79.46752085605 0.9996832075110 -79.46752085605 0.0250058940662 10.551178757110
8.660100000000000 0.0250034739255 10.527549856274 0.9996832658485 -79.46811966893 0.9996832658485 -79.46811966893 0.0250034789755 10.550596185261
8.660150000000000 0.0250010540539 10.526942458436 0.9996833242921 -79.46871874939 0.9996833242921 -79.46871874939 0.0250010592137 10.550013386633
8.660200000000000 0.0249986295024 10.526334780782 0.9996833828431 -79.46931809793 0.9996833828431 -79.46931809793 0.0249986347717 10.549430358622
8.660250000000001 0.0249962002526 10.525726823800 0.9996834415010 -79.46991771561 0.9996834415010 -79.46991771561 0.0249962056313 10.548847101920
8.660300000000001 0.0249937662936 10.525118585334 0.9996835002667 -79.47051760305 0.9996835002667 -79.47051760305 0.0249937717817 10.548263614516
8.660350000000001 0.0249913276128 10.524510065984 0.9996835591400 -79.47111776098 0.9996835591400 -79.47111776098 0.0249913332100 10.547679897152
8.660400000000001 0.0249888841960 10.523901264766 0.9996836181212 -79.47171819021 0.9996836181212 -79.47171819021 0.0249888899022 10.547095949021
8.660450000000001 0.0249864360274 10.523292179705 0.9996836772110 -79.47231889164 0.9996836772110 -79.47231889164 0.0249864418425 10.546511768340
8.660500000000001 0.0249839830948 10.522682811177 0.9996837364093 -79.47291986598 0.9996837364093 -79.47291986598 0.0249839890187 10.545927355614
8.660550000000001 0.0249815253867 10.522073157861 0.9996837957166 -79.47352111388 0.9996837957166 -79.47352111388 0.0249815314192 10.545342709687
8.660600000000001 0.0249790628887 10.521463219641 0.9996838551328 -79.47412263617 0.9996838551328 -79.47412263617 0.0249790690296 10.544757830606
8.660650000000000 0.0249765955833 10.520852994543 0.9996839146587 -79.47472443384 0.9996839146587 -79.47472443384 0.0249766018327 10.544172716599
8.660700000000000 0.0249741234605 10.520242481899 0.9996839742947 -79.47532650749 0.9996839742947 -79.47532650749 0.0249741298180 10.543587367132
8.660750000000000 0.0249716465058 10.519631682028 0.9996840340403 -79.47592885793 0.9996840340403 -79.47592885793 0.0249716529714 10.543001782690
8.660800000000000 0.0249691647075 10.519020593429 0.9996840938964 -79.47653148584 0.9996840938964 -79.47653148584 0.0249691712810 10.542415961924
8.660850000000000 0.0249666780474 10.518409215139 0.9996841538631 -79.47713439226 0.9996841538631 -79.47713439226 0.0249666847286 10.541829904079
8.660900000000000 0.0249641865128 10.517797546632 0.9996842139406 -79.47773757791 0.9996842139406 -79.47773757791 0.0249641933017 10.541243608786
8.660950000000000 0.0249616900906 10.517185586380 0.9996842741297 -79.47834104355 0.9996842741297 -79.47834104355 0.0249616969870 10.540657074675
8.661000000000001 0.0249591887672 10.516573334324 0.9996843344301 -79.47894478995 0.9996843344301 -79.47894478995 0.0249591957710 10.540070301864
8.661050000000001 0.0249566825259 10.515960789090 0.9996843948424 -79.47954881808 0.9996843948424 -79.47954881808 0.0249566896370 10.539483289162
8.661100000000001 0.0249541713557 10.515347949959 0.9996844553670 -79.48015312857 0.9996844553670 -79.48015312857 0.0249541785739 10.538896035995
8.661150000000001 0.0249516552403 10.514734816785 0.9996845160037 -79.48075772235 0.9996845160037 -79.48075772235 0.0249516625654 10.538308542408
8.661200000000001 0.0249491341644 10.514121387829 0.9996845767532 -79.48136260029 0.9996845767532 -79.48136260029 0.0249491415964 10.537720806851
8.661250000000001 0.0249466081155 10.513507662608 0.9996846376158 -79.48196776312 0.9996846376158 -79.48196776312 0.0249466156541 10.537132828991
8.661300000000001 0.0249440770799 10.512893640314 0.9996846985916 -79.48257321160 0.9996846985916 -79.48257321160 0.0249440847251 10.536544608194
8.661350000000001 0.0249415410421 10.512279319926 0.9996847596811 -79.48317894665 0.9996847596811 -79.48317894665 0.0249415487937 10.535956143619
8.661400000000000 0.0249389999861 10.511664700539 0.9996848208846 -79.48378496917 0.9996848208846 -79.48378496917 0.0249390078440 10.535367434554
8.661450000000000 0.0249364539005 10.511049781819 0.9996848822021 -79.48439127982 0.9996848822021 -79.48439127982 0.0249364618646 10.534778480811
8.661500000000000 0.0249339027666 10.510434561854 0.9996849436344 -79.48499787966 0.9996849436344 -79.48499787966 0.0249339108366 10.534189280694
8.661550000000000 0.0249313465729 10.509819040534 0.9996850051814 -79.48560476936 0.9996850051814 -79.48560476936 0.0249313547489 10.533599834241
8.661600000000000 0.0249287853028 10.509203217104 0.9996850668436 -79.48621194987 0.9996850668436 -79.48621194987 0.0249287935846 10.533010140900
8.661650000000000 0.0249262189422 10.508587089998 0.9996851286213 -79.48681942200 0.9996851286213 -79.48681942200 0.0249262273295 10.532420199267
8.661700000000000 0.0249236474764 10.507970659165 0.9996851905147 -79.48742718658 0.9996851905147 -79.48742718658 0.0249236559692 10.531830009481
8.661750000000001 0.0249210708912 10.507353923055 0.9996852525242 -79.48803524443 0.9996852525242 -79.48803524443 0.0249210794894 10.531239570165
8.661800000000001 0.0249184891705 10.506736881137 0.9996853146501 -79.48864359649 0.9996853146501 -79.48864359649 0.0249184978738 10.530648880974
8.661850000000001 0.0249159022979 10.506119531879 0.9996853768929 -79.48925224367 0.9996853768929 -79.48925224367 0.0249159111064 10.530057940583
8.661900000000001 0.0249133102610 10.505501875921 0.9996854392523 -79.48986118670 0.9996854392523 -79.48986118670 0.0249133191744 10.529466749779
8.661950000000001 0.0249107130421 10.504883910596 0.9996855017294 -79.49047042660 0.9996855017294 -79.49047042660 0.0249107220603 10.528875306117
8.662000000000001 0.0249081106289 10.504265635988 0.9996855643240 -79.49107996406 0.9996855643240 -79.49107996406 0.0249081197518 10.528283609822
8.662050000000001 0.0249055030045 10.503647050866 0.9996856270367 -79.49168980005 0.9996856270367 -79.49168980005 0.0249055122319 10.527691659880
8.662100000000001 0.0249028901528 10.503028153990 0.9996856898678 -79.49229993549 0.9996856898678 -79.49229993549 0.0249028994847 10.527099455241
8.662150000000000 0.0249002720583 10.502408945370 0.9996857528173 -79.49291037129 0.9996857528173 -79.49291037129 0.0249002814945 10.526506996105
8.662200000000000 0.0248976487072 10.501789423246 0.9996858158859 -79.49352110822 0.9996858158859 -79.49352110822 0.0248976582475 10.525914280878
8.662250000000000 0.0248950200820 10.501169587167 0.9996858790737 -79.49413214728 0.9996858790737 -79.49413214728 0.0248950297264 10.525321309330
8.662300000000000 0.0248923861691 10.500549436809 0.9996859423807 -79.49474348927 0.9996859423807 -79.49474348927 0.0248923959174 10.524728081293
8.662350000000000 0.0248897469516 10.499928969744 0.9996860058080 -79.49535513514 0.9996860058080 -79.49535513514 0.0248897568037 10.524134594560
8.662400000000000 0.0248871024148 10.499308185864 0.9996860693555 -79.49596708574 0.9996860693555 -79.49596708574 0.0248871123705 10.523540849192
8.662450000000000 0.0248844525406 10.498687084630 0.9996861330234 -79.49657934211 0.9996861330234 -79.49657934211 0.0248844625998 10.522946844877
8.662500000000001 0.0248817973164 10.498065663579 0.9996861968126 -79.49719190496 0.9996861968126 -79.49719190496 0.0248818074789 10.522352579301
8.662550000000001 0.0248791367245 10.497443924030 0.9996862607226 -79.49780477532 0.9996862607226 -79.49780477532 0.0248791469903 10.521758054009
8.662600000000001 0.0248764707474 10.496821862772 0.9996863247545 -79.49841795419 0.9996863247545 -79.49841795419 0.0248764811162 10.521163265991
8.662650000000001 0.0248737993711 10.496199480576 0.9996863889080 -79.49903144236 0.9996863889080 -79.49903144236 0.0248738098430 10.520568216198
8.662700000000001 0.0248711225797 10.495576775814 0.9996864531838 -79.49964524075 0.9996864531838 -79.49964524075 0.0248711331544 10.519972903204
8.662750000000001 0.0248684403542 10.494953747198 0.9996865175822 -79.50025935045 0.9996865175822 -79.50025935045 0.0248684510317 10.519377325937
8.662800000000001 0.0248657526829 10.494330394002 0.9996865821036 -79.50087377213 0.9996865821036 -79.50087377213 0.0248657634629 10.518781483832
8.662850000000001 0.0248630595472 10.493706716127 0.9996866467479 -79.50148850686 0.9996866467479 -79.50148850686 0.0248630704297 10.518185377011
8.662900000000000 0.0248603609299 10.493082711392 0.9996867115160 -79.50210355561 0.9996867115160 -79.50210355561 0.0248603719147 10.517589003502
8.662950000000000 0.0248576568151 10.492458379017 0.9996867764081 -79.50271891931 0.9996867764081 -79.50271891931 0.0248576679022 10.516992362720
8.663000000000000 0.0248549471865 10.491833718632 0.9996868414242 -79.50333459888 0.9996868414242 -79.50333459888 0.0248549583756 10.516395454505
8.663050000000000 0.0248522320281 10.491208728601 0.9996869065651 -79.50395059525 0.9996869065651 -79.50395059525 0.0248522433192 10.515798277406
8.663100000000000 0.0248495113223 10.490583408146 0.9996869718310 -79.50456690941 0.9996869718310 -79.50456690941 0.0248495227152 10.515200830872
8.663150000000000 0.0248467850522 10.489957756719 0.9996870372219 -79.50518354235 0.9996870372219 -79.50518354235 0.0248467965468 10.514603114558
8.663200000000000 0.0248440532037 10.489331773100 0.9996871027385 -79.50580049487 0.9996871027385 -79.50580049487 0.0248440647998 10.514005127418
8.663250000000000 0.0248413157568 10.488705455715 0.9996871683812 -79.50641776811 0.9996871683812 -79.50641776811 0.0248413274544 10.513406868126
8.663300000000001 0.0248385726946 10.488078804513 0.9996872341500 -79.50703536304 0.9996872341500 -79.50703536304 0.0248385844935 10.512808336835
8.663350000000001 0.0248358240022 10.487451817315 0.9996873000458 -79.50765328052 0.9996873000458 -79.50765328052 0.0248358359023 10.512209531553
8.663400000000001 0.0248330696619 10.486824494154 0.9996873660685 -79.50827152156 0.9996873660685 -79.50827152156 0.0248330816631 10.511610452536
8.663450000000001 0.0248303096575 10.486196833871 0.9996874322184 -79.50889008709 0.9996874322184 -79.50889008709 0.0248303217596 10.511011098822
8.663500000000001 0.0248275439693 10.485568834953 0.9996874984962 -79.50950897825 0.9996874984962 -79.50950897825 0.0248275561722 10.510411469137
8.663550000000001 0.0248247725806 10.484940496750 0.9996875649020 -79.51012819598 0.9996875649020 -79.51012819598 0.0248247848842 10.509811563043
8.663600000000001 0.0248219954756 10.484311818312 0.9996876314362 -79.51074774118 0.9996876314362 -79.51074774118 0.0248220078797 10.509211379780
8.663650000000001 0.0248192126370 10.483682797631 0.9996876980995 -79.51136761486 0.9996876980995 -79.51136761486 0.0248192251416 10.508610917566
8.663700000000000 0.0248164240436 10.483053435395 0.9996877648916 -79.51198781823 0.9996877648916 -79.51198781823 0.0248164366486 10.508010177329
8.663750000000000 0.0248136296844 10.482423729429 0.9996878318133 -79.51260835192 0.9996878318133 -79.51260835192 0.0248136423895 10.507409157059
8.663800000000000 0.0248108295385 10.481793678795 0.9996878988649 -79.51322921713 0.9996878988649 -79.51322921712 0.0248108423436 10.506807856061
8.663850000000000 0.0248080235843 10.481163282757 0.9996879660467 -79.51385041508 0.9996879660467 -79.51385041508 0.0248080364894 10.506206273857
8.663900000000000 0.0248052118105 10.480532539742 0.9996880333592 -79.51447194644 0.9996880333592 -79.51447194644 0.0248052248154 10.505604409033
8.663950000000000 0.0248023941978 10.479901449780 0.9996881008024 -79.51509381231 0.9996881008024 -79.51509381231 0.0248024073024 10.505002261857
8.664000000000000 0.0247995707237 10.479270010062 0.9996881683774 -79.51571601397 0.9996881683774 -79.51571601397 0.0247995839279 10.504399829779
8.664050000000001 0.0247967413745 10.478638220582 0.9996882360840 -79.51633855221 0.9996882360840 -79.51633855221 0.0247967546781 10.503797112981
8.664100000000001 0.0247939061320 10.478006080784 0.9996883039225 -79.51696142809 0.9996883039225 -79.51696142809 0.0247939195349 10.503194111139
8.664150000000001 0.0247910649775 10.477373588901 0.9996883718934 -79.51758464266 0.9996883718934 -79.51758464266 0.0247910784796 10.502590822697
8.664200000000001 0.0247882178906 10.476740743669 0.9996884399973 -79.51820819709 0.9996884399973 -79.51820819709 0.0247882314918 10.501987246663
8.664250000000001 0.0247853648569 10.476107544569 0.9996885082343 -79.51883209222 0.9996885082343 -79.51883209222 0.0247853785571 10.501383382690
8.664300000000001 0.0247825058570 10.475473990774 0.9996885766046 -79.51945632915 0.9996885766046 -79.51945632915 0.0247825196559 10.500779230192
8.664350000000001 0.0247796408706 10.474840079782 0.9996886451093 -79.52008090904 0.9996886451093 -79.52008090904 0.0247796547683 10.500174786927
8.664400000000001 0.0247767698807 10.474205811670 0.9996887137482 -79.52070583288 0.9996887137482 -79.52070583288 0.0247767838770 10.499570053169
8.664450000000000 0.0247738928690 10.473571185373 0.9996887825217 -79.52133110171 0.9996887825217 -79.52133110171 0.0247739069637 10.498965028100
8.664500000000000 0.0247710098160 10.472936198990 0.9996888514304 -79.52195671664 0.9996888514304 -79.52195671664 0.0247710240091 10.498359710048
8.664550000000000 0.0247681207013 10.472300852366 0.9996889204745 -79.52258267886 0.9996889204745 -79.52258267886 0.0247681349926 10.497754099111
8.664600000000000 0.0247652255109 10.471665143688 0.9996889896545 -79.52320898915 0.9996889896545 -79.52320898915 0.0247652399003 10.497148193667
8.664650000000000 0.0247623242220 10.471029072221 0.9996890589706 -79.52383564882 0.9996890589706 -79.52383564882 0.0247623387094 10.496541993249
8.664700000000000 0.0247594168168 10.470392636847 0.9996891284234 -79.52446265890 0.9996891284234 -79.52446265890 0.0247594314021 10.495935496969
8.664750000000000 0.0247565032751 10.469755835129 0.9996891980136 -79.52509002055 0.9996891980136 -79.52509002055 0.0247565179580 10.495328702638
8.664800000000001 0.0247535835800 10.469118668963 0.9996892677405 -79.52571773473 0.9996892677405 -79.52571773473 0.0247535983606 10.494721612372
8.664850000000001 0.0247506577128 10.468481134308 0.9996893376056 -79.52634580251 0.9996893376056 -79.52634580251 0.0247506725909 10.494114222357
8.664900000000001 0.0247477256504 10.467843230832 0.9996894076090 -79.52697422522 0.9996894076090 -79.52697422522 0.0247477406259 10.493506532556
8.664950000000001 0.0247447873774 10.467204957429 0.9996894777511 -79.52760300374 0.9996894777511 -79.52760300374 0.0247448024501 10.492898542044
8.665000000000001 0.0247418428713 10.466566314503 0.9996895480315 -79.52823213935 0.9996895480315 -79.52823213935 0.0247418580412 10.492290251518
8.665050000000001 0.0247388921145 10.465927298835 0.9996896184517 -79.52886163308 0.9996896184517 -79.52886163308 0.0247389073814 10.491681657981
8.665100000000001 0.0247359350880 10.465287909661 0.9996896890117 -79.52949148600 0.9996896890117 -79.52949148600 0.0247359504518 10.491072760899
8.665150000000001 0.0247329717695 10.464648146766 0.9996897597117 -79.53012169940 0.9996897597117 -79.53012169940 0.0247329872301 10.490463560340
8.665200000000000 0.0247300021421 10.464008007934 0.9996898305524 -79.53075227424 0.9996898305524 -79.53075227424 0.0247300176994 10.489854054302
8.665250000000000 0.0247270261847 10.463367492546 0.9996899015341 -79.53138321173 0.9996899015341 -79.53138321173 0.0247270418386 10.489244242433
8.665300000000000 0.0247240438763 10.462726599275 0.9996899726571 -79.53201451308 0.9996899726571 -79.53201451308 0.0247240596266 10.488634123657
8.665350000000000 0.0247210551992 10.462085326797 0.9996900439220 -79.53264617930 0.9996900439220 -79.53264617930 0.0247210710459 10.488023696890
8.665400000000000 0.0247180601322 10.461443674141 0.9996901153291 -79.53327821161 0.9996901153291 -79.53327821161 0.0247180760751 10.487412961418
8.665450000000000 0.0247150586539 10.460801639846 0.9996901868789 -79.53391061123 0.9996901868789 -79.53391061123 0.0247150746929 10.486801916055
8.665500000000000 0.0247120507464 10.460159223687 0.9996902585714 -79.53454337919 0.9996902585714 -79.53454337919 0.0247120668813 10.486190560795
8.665550000000001 0.0247090363874 10.459516423024 0.9996903304076 -79.53517651677 0.9996903304076 -79.53517651677 0.0247090526181 10.485578893282
8.665600000000001 0.0247060155585 10.458873237642 0.9996904023875 -79.53581002501 0.9996904023875 -79.53581002501 0.0247060318850 10.484966913534
8.665650000000001 0.0247029882367 10.458229666042 0.9996904745116 -79.53644390524 0.9996904745116 -79.53644390524 0.0247030046589 10.484354620337
8.665700000000001 0.0246999544041 10.457585707017 0.9996905467805 -79.53707815849 0.9996905467805 -79.53707815849 0.0246999709217 10.483742012717
8.665750000000001 0.0246969140364 10.456941359078 0.9996906191945 -79.53771278614 0.9996906191945 -79.53771278614 0.0246969306494 10.483129089485
8.665800000000001 0.0246938671168 10.456296621618 0.9996906917539 -79.53834778917 0.9996906917539 -79.53834778917 0.0246938838251 10.482515850254
8.665850000000001 0.0246908136210 10.455651492449 0.9996907644594 -79.53898316895 0.9996907644594 -79.53898316895 0.0246908304245 10.481902293129
8.665900000000001 0.0246877535317 10.455005970822 0.9996908373114 -79.53961892650 0.9996908373114 -79.53961892650 0.0246877704302 10.481288417602
8.665950000000000 0.0246846868249 10.454360056287 0.9996909103098 -79.54025506317 0.9996909103098 -79.54025506317 0.0246847038184 10.480674223508
8.666000000000000 0.0246816134798 10.453713745960 0.9996909834559 -79.54089158016 0.9996909834559 -79.54089158016 0.0246816305681 10.480059708231
8.666050000000000 0.0246785334766 10.453067040282 0.9996910567493 -79.54152847861 0.9996910567493 -79.54152847861 0.0246785506597 10.479444872462
8.666100000000000 0.0246754467914 10.452419936988 0.9996911301908 -79.54216575988 0.9996911301908 -79.54216575988 0.0246754640691 10.478829714237
8.666150000000000 0.0246723534071 10.451772434566 0.9996912037811 -79.54280342497 0.9996912037811 -79.54280342497 0.0246723707793 10.478214232273
8.666200000000000 0.0246692532997 10.451124532970 0.9996912775200 -79.54344147523 0.9996912775200 -79.54344147523 0.0246692707662 10.477598426820
8.666250000000000 0.0246661464454 10.450476230029 0.9996913514083 -79.54407991204 0.9996913514083 -79.54407991204 0.0246661640062 10.476982295999
8.666300000000000 0.0246630328260 10.449827524822 0.9996914254464 -79.54471873643 0.9996914254464 -79.54471873643 0.0246630504809 10.476365839137
8.666350000000001 0.0246599124193 10.449178414964 0.9996914996351 -79.54535794969 0.9996914996351 -79.54535794969 0.0246599301683 10.475749054119
8.666400000000001 0.0246567852003 10.448528901251 0.9996915739740 -79.54599755324 0.9996915739740 -79.54599755324 0.0246568030433 10.475131942060
8.666450000000001 0.0246536511527 10.447878980177 0.9996916484644 -79.54663754802 0.9996916484644 -79.54663754802 0.0246536690894 10.474514499678
8.666500000000001 0.0246505102485 10.447228651295 0.9996917231066 -79.54727793564 0.9996917231066 -79.54727793564 0.0246505282789 10.473896726856
8.666550000000001 0.0246473624707 10.446577914547 0.9996917979002 -79.54791871705 0.9996917979002 -79.54791871705 0.0246473805948 10.473278623767
8.666600000000001 0.0246442077911 10.445926766666 0.9996918728468 -79.54855989389 0.9996918728468 -79.54855989389 0.0246442260087 10.472660187496
8.666650000000001 0.0246410461927 10.445275207267 0.9996919479462 -79.54920146713 0.9996919479462 -79.54920146713 0.0246410645036 10.472041417882
8.666700000000001 0.0246378776518 10.444623235521 0.9996920231987 -79.54984343813 0.9996920231987 -79.54984343813 0.0246378960560 10.471422314399
8.666750000000000 0.0246347021457 10.443970849310 0.9996920986052 -79.55048580817 0.9996920986052 -79.55048580817 0.0246347206430 10.470802875214
8.666800000000000 0.0246315196485 10.443318047200 0.9996921741661 -79.55112857876 0.9996921741661 -79.55112857876 0.0246315382389 10.470183099218
8.666850000000000 0.0246283301431 10.442664828163 0.9996922498818 -79.55177175087 0.9996922498818 -79.55177175087 0.0246283488265 10.469562985611
8.666900000000000 0.0246251336025 10.442011190937 0.9996923257526 -79.55241532605 0.9996923257526 -79.55241532605 0.0246251523787 10.468942533473
8.666950000000000 0.0246219300052 10.441357134151 0.9996924017790 -79.55305930553 0.9996924017790 -79.55305930553 0.0246219488741 10.468321741702
8.667000000000000 0.0246187193283 10.440702656585 0.9996924779615 -79.55370369062 0.9996924779615 -79.55370369062 0.0246187382899 10.467700609382
8.667050000000000 0.0246155015487 10.440047756501 0.9996925543007 -79.55434848265 0.9996925543007 -79.55434848265 0.0246155206028 10.467079135062
8.667100000000001 0.0246122766436 10.439392432936 0.9996926307968 -79.55499368292 0.9996926307968 -79.55499368292 0.0246122957901 10.466457318072
8.667150000000001 0.0246090445863 10.438736683929 0.9996927074505 -79.55563929296 0.9996927074505 -79.55563929296 0.0246090638251 10.465835156789
8.667200000000001 0.0246058053580 10.438080508455 0.9996927842623 -79.55628531386 0.9996927842623 -79.55628531386 0.0246058246890 10.465212650437
8.667250000000001 0.0246025589364 10.437423904634 0.9996928612327 -79.55693174688 0.9996928612327 -79.55693174688 0.0246025783595 10.464589797426
8.667300000000001 0.0245993052919 10.436766872625 0.9996929383616 -79.55757859373 0.9996929383616 -79.55757859373 0.0245993248069 10.463966598280
8.667350000000001 0.0245960444047 10.436109409187 0.9996930156502 -79.55822585554 0.9996930156502 -79.55822585554 0.0245960640117 10.463343050022
8.667400000000001 0.0245927762460 10.435451514772 0.9996930930983 -79.55887353396 0.9996930930983 -79.55887353396 0.0245927959447 10.462719153461
8.667450000000001 0.0245895008001 10.434793186007 0.9996931707071 -79.55952162989 0.9996931707071 -79.55952162989 0.0245895205905 10.462094905446
8.667500000000000 0.0245862180362 10.434134421721 0.9996932484770 -79.56017014509 0.9996932484770 -79.56017014509 0.0245862379181 10.461470305183
8.667550000000000 0.0245829279342 10.433475221992 0.9996933264078 -79.56081908071 0.9996933264078 -79.56081908071 0.0245829479077 10.460845353024
8.667600000000000 0.0245796304674 10.432815583962 0.9996934045007 -79.56146843831 0.9996934045007 -79.56146843831 0.0245796505321 10.460220046446
8.667650000000000 0.0245763256132 10.432155507431 0.9996934827556 -79.56211821914 0.9996934827556 -79.56211821914 0.0245763457693 10.459594385546
8.667700000000000 0.0245730133440 10.431494989311 0.9996935611737 -79.56276842482 0.9996935611737 -79.56276842482 0.0245730335912 10.458968367571
8.667750000000000 0.0245696936401 10.430834029766 0.9996936397548 -79.56341905646 0.9996936397548 -79.56341905646 0.0245697139783 10.458341992968
8.667800000000000 0.0245663664723 10.430172626666 0.9996937184997 -79.56407011573 0.9996937184997 -79.56407011573 0.0245663869015 10.457715259964
8.667850000000001 0.0245630318168 10.429510778530 0.9996937974088 -79.56472160400 0.9996937974088 -79.56472160400 0.0245630523368 10.457088167395
8.667900000000001 0.0245596896493 10.428848483576 0.9996938764829 -79.56537352267 0.9996938764829 -79.56537352267 0.0245597102601 10.456460713783
8.667950000000001 0.0245563399470 10.428185740717 0.9996939557222 -79.56602587304 0.9996939557222 -79.56602587304 0.0245563606484 10.455832898346
8.668000000000001 0.0245529826815 10.427522548886 0.9996940351270 -79.56667865673 0.9996940351270 -79.56667865673 0.0245530034735 10.455204720380
8.668050000000001 0.0245496178303 10.426858906400 0.9996941146980 -79.56733187505 0.9996941146980 -79.56733187505 0.0245496387127 10.454576178492
8.668100000000001 0.0245462453630 10.426194810496 0.9996941944362 -79.56798552972 0.9996941944362 -79.56798552972 0.0245462663357 10.453947270305
8.668150000000001 0.0245428652635 10.425530261890 0.9996942743411 -79.56863962167 0.9996942743411 -79.56863962167 0.0245428863265 10.453317996765
8.668200000000001 0.0245394774952 10.424865256812 0.9996943544143 -79.56929415300 0.9996943544143 -79.56929415300 0.0245394986483 10.452688354546
8.668250000000000 0.0245360820378 10.424199795644 0.9996944346554 -79.56994912488 0.9996944346554 -79.56994912488 0.0245361032809 10.452058344317
8.668300000000000 0.0245326788663 10.423533874952 0.9996945150657 -79.57060453873 0.9996945150657 -79.57060453873 0.0245327001994 10.451427962961
8.668350000000000 0.0245292679541 10.422867495269 0.9996945956450 -79.57126039608 0.9996945956450 -79.57126039608 0.0245292893770 10.450797211351
8.668400000000000 0.0245258492744 10.422200653558 0.9996946763942 -79.57191669847 0.9996946763942 -79.57191669847 0.0245258707870 10.450166086808
8.668450000000000 0.0245224227997 10.421533348263 0.9996947573141 -79.57257344747 0.9996947573141 -79.57257344747 0.0245224444020 10.449534588111
8.668500000000000 0.0245189885069 10.420865578849 0.9996948384046 -79.57323064440 0.9996948384046 -79.57323064440 0.0245190101987 10.448902715058
8.668550000000000 0.0245155463711 10.420197343501 0.9996949196664 -79.57388829070 0.9996949196664 -79.57388829070 0.0245155681524 10.448270466140
8.668600000000001 0.0245120963575 10.419528640318 0.9996950011002 -79.57454638836 0.9996950011002 -79.57454638836 0.0245121182281 10.447637839899
8.668650000000001 0.0245086384482 10.418859468137 0.9996950827063 -79.57520493839 0.9996950827063 -79.57520493839 0.0245086604081 10.447004835424
8.668700000000001 0.0245051726122 10.418189824336 0.9996951644857 -79.57586394259 0.9996951644857 -79.57586394259 0.0245051946612 10.446371450494
8.668750000000001 0.0245016988219 10.417519708935 0.9996952464382 -79.57652340252 0.9996952464382 -79.57652340252 0.0245017209600 10.445737685468
8.668800000000001 0.0244982170527 10.416849118493 0.9996953285651 -79.57718331962 0.9996953285651 -79.57718331962 0.0244982392797 10.445103537247
8.668850000000001 0.0244947272767 10.416178053182 0.9996954108664 -79.57784369545 0.9996954108664 -79.57784369545 0.0244947495926 10.444469006359
8.668900000000001 0.0244912294676 10.415506510491 0.9996954933428 -79.57850453155 0.9996954933428 -79.57850453155 0.0244912518722 10.443834090645
8.668950000000001 0.0244877235935 10.414834488329 0.9996955759951 -79.57916582973 0.9996955759951 -79.57916582973 0.0244877460868 10.443198788412
8.669000000000000 0.0244842096333 10.414161986176 0.9996956588233 -79.57982759121 0.9996956588233 -79.57982759121 0.0244842322152 10.442563099440
8.669050000000000 0.0244806875543 10.413489001885 0.9996957418284 -79.58048981785 0.9996957418284 -79.58048981785 0.0244807102247 10.441927021987
8.669100000000000 0.0244771573339 10.412815534316 0.9996958250105 -79.58115251096 0.9996958250105 -79.58115251096 0.0244771800927 10.441290555225
8.669150000000000 0.0244736189362 10.412141580342 0.9996959083709 -79.58181567259 0.9996959083709 -79.58181567259 0.0244736417833 10.440653696480
8.669200000000000 0.0244700723427 10.411467140243 0.9996959919093 -79.58247930380 0.9996959919093 -79.58247930380 0.0244700952780 10.440016446296
8.669250000000000 0.0244665175176 10.410792210740 0.9996960756269 -79.58314340665 0.9996960756269 -79.58314340665 0.0244665405410 10.439378801841
8.669300000000000 0.0244629544395 10.410116791505 0.9996961595238 -79.58380798235 0.9996961595238 -79.58380798235 0.0244629775510 10.438740763091
8.669350000000000 0.0244593830730 10.409440878867 0.9996962436013 -79.58447303294 0.9996962436013 -79.58447303294 0.0244594062724 10.438102326818
8.669400000000001 0.0244558033961 10.408764474084 0.9996963278588 -79.58513855968 0.9996963278588 -79.58513855968 0.0244558266833 10.437463494591
8.669450000000001 0.0244522153723 10.408087573301 0.9996964122977 -79.58580456467 0.9996964122977 -79.58580456467 0.0244522387472 10.436824263007
8.669500000000001 0.0244486189814 10.407410175152 0.9996964969185 -79.58647104905 0.9996964969185 -79.58647104905 0.0244486424440 10.436184630988
8.669550000000001 0.0244450141887 10.406732279157 0.9996965817211 -79.58713801482 0.9996965817212 -79.58713801482 0.0244450377388 10.435544598497
8.669600000000001 0.0244414009668 10.406053882463 0.9996966667068 -79.58780546354 0.9996966667068 -79.58780546354 0.0244414246044 10.434904163047
8.669650000000001 0.0244377792864 10.405374982373 0.9996967518764 -79.58847339690 0.9996967518764 -79.58847339690 0.0244378030114 10.434263322329
8.669700000000001 0.0244341491194 10.404695578702 0.9996968372299 -79.58914181651 0.9996968372299 -79.58914181651 0.0244341729317 10.433622076527
8.669750000000001 0.0244305104360 10.404015670619 0.9996969227674 -79.58981072407 0.9996969227674 -79.58981072407 0.0244305343355 10.432980425206
8.669800000000000 0.0244268632042 10.403335253674 0.9996970084908 -79.59048012143 0.9996970084908 -79.59048012143 0.0244268871908 10.432338364322
8.669850000000000 0.0244232073985 10.402654328461 0.9996970943995 -79.59115001003 0.9996970943995 -79.59115001003 0.0244232314722 10.431695894831
8.669900000000000 0.0244195429838 10.401972891855 0.9996971804948 -79.59182039189 0.9996971804948 -79.59182039189 0.0244195671444 10.431053014050
8.669950000000000 0.0244158699369 10.401290943004 0.9996972667768 -79.59249126835 0.9996972667768 -79.59249126835 0.0244158941843 10.430409721454
8.670000000000000 0.0244121882182 10.400608479034 0.9996973532466 -79.59316264167 0.9996973532466 -79.59316264167 0.0244122125524 10.429766014657
8.670050000000000 0.0244084978050 10.399925499192 0.9996974399044 -79.59383451314 0.9996974399044 -79.59383451314 0.0244085222259 10.429121893242