! Sonnet Data File
! From: emgraph Version : 16.52
! From Project: 171117_Xmon_fullysym
! Data is De-embedded 
! Data File Written: 11/26/2017 17:14:24
!< HDATE 11/22/2017 16:48:52
!< MDATE 11/23/2017 10:16:42
!< PARAMS
!< Lj = 11.0
!< Gap = 1.0
!< Pwid = 2000.0
!< Airgap = 6.0
!< Width = 10.0
!< Lj1 = 9.7
!< END PARAMS
# GHZ S MA R 50.90000
8.750000000000000 0.0240504848690 -2.943035207814 0.9997066470149 -80.49439326954 0.9997066470166 -80.49439326938 0.0240518629282 21.968475772883
!< P1 F=8.75 Eeff=(6.44841643 -2.9796e-5) Z0=(50.9085185 1.17018e-4) R=0.0 C=0.0 
!< P2 F=8.75 Eeff=(6.44841643 -2.9796e-5) Z0=(50.9085185 1.17018e-4) R=0.0 C=0.0 
8.750100000000000 0.0240462120361 -2.946809677654 0.9997067463597 -80.49557182840 0.9997067463597 -80.49557182840 0.0240475918436 21.969910555270
8.750200000000001 0.0240419223778 -2.950595352600 0.9997068460723 -80.49675137962 0.9997068460723 -80.49675137962 0.0240433039422 21.971354643810
8.750300000000001 0.0240376157942 -2.954392294732 0.9997069461550 -80.49793192895 0.9997069461550 -80.49793192895 0.0240389991255 21.972808105712
8.750400000000001 0.0240332921801 -2.958200577899 0.9997070466094 -80.49911348259 0.9997070466094 -80.49911348259 0.0240346772887 21.974271006130
8.750500000000001 0.0240289514241 -2.962020280779 0.9997071474375 -80.50029604711 0.9997071474375 -80.50029604711 0.0240303383208 21.975743412500
8.750600000000000 0.0240245934455 -2.965851465009 0.9997072486413 -80.50147962732 0.9997072486413 -80.50147962732 0.0240259821408 21.977225376132
8.750700000000000 0.0240202181398 -2.969694206290 0.9997073502230 -80.50266422938 0.9997073502230 -80.50266422938 0.0240216086443 21.978716960630
8.750800000000000 0.0240158253985 -2.973548583554 0.9997074521853 -80.50384985972 0.9997074521853 -80.50384985972 0.0240172177228 21.980218231131
8.750900000000000 0.0240114151280 -2.977414663582 0.9997075545290 -80.50503652387 0.9997075545290 -80.50503652387 0.0240128092831 21.981729248359
8.751000000000001 0.0240069872120 -2.981292529874 0.9997076572568 -80.50622422871 0.9997076572568 -80.50622422871 0.0240083832089 21.983250082218
8.751100000000001 0.0240025415717 -2.985182243724 0.9997077603706 -80.50741297891 0.9997077603706 -80.50741297891 0.0240039394213 21.984780783457
8.751200000000001 0.0239980780828 -2.989083891855 0.9997078638724 -80.50860278181 0.9997078638724 -80.50860278181 0.0239994777963 21.986321427983
8.751300000000001 0.0239935966407 -2.992997553698 0.9997079677656 -80.50979364361 0.9997079677656 -80.50979364361 0.0239949982290 21.987872077669
8.751400000000000 0.0239890971591 -2.996923291790 0.9997080720506 -80.51098556942 0.9997080720506 -80.51098556942 0.0239905006335 21.989432791146
8.751500000000000 0.0239845795081 -3.000861198530 0.9997081767304 -80.51217856691 0.9997081767304 -80.51217856691 0.0239859848802 21.991003645668
8.751600000000000 0.0239800435884 -3.004811346423 0.9997082818064 -80.51337264196 0.9997082818064 -80.51337264196 0.0239814508698 21.992584705102
8.751700000000001 0.0239754892911 -3.008773819008 0.9997083872825 -80.51456780102 0.9997083872825 -80.51456780102 0.0239768984929 21.994176033377
8.751800000000001 0.0239709165160 -3.012748686838 0.9997084931590 -80.51576405002 0.9997084931590 -80.51576405002 0.0239723276501 21.995777697450
8.751900000000001 0.0239663251332 -3.016736043832 0.9997085994392 -80.51696139663 0.9997085994392 -80.51696139663 0.0239677382114 21.997389774754
8.752000000000001 0.0239617150463 -3.020735963071 0.9997087061252 -80.51815984657 0.9997087061252 -80.51815984657 0.0239631300803 21.999012326679
8.752100000000000 0.0239570861499 -3.024748521526 0.9997088132186 -80.51935940607 0.9997088132186 -80.51935940607 0.0239585031517 22.000645420633
8.752200000000000 0.0239524383182 -3.028773811028 0.9997089207225 -80.52056008258 0.9997089207225 -80.52056008258 0.0239538572998 22.002289132707
8.752300000000000 0.0239477714432 -3.032811911249 0.9997090286388 -80.52176188249 0.9997090286388 -80.52176188249 0.0239491924168 22.003943531330
8.752400000000000 0.0239430853991 -3.036862912045 0.9997091369696 -80.52296481323 0.9997091369696 -80.52296481323 0.0239445083771 22.005608694875
8.752500000000001 0.0239383800918 -3.040926887882 0.9997092457178 -80.52416888039 0.9997092457178 -80.52416888039 0.0239398050862 22.007284682783
8.752600000000001 0.0239336553878 -3.045003931540 0.9997093548846 -80.52537409186 0.9997093548846 -80.52537409186 0.0239350824114 22.008971579548
8.752700000000001 0.0239289111734 -3.049094131220 0.9997094644741 -80.52658045438 0.9997094644741 -80.52658045438 0.0239303402385 22.010669453285
8.752800000000001 0.0239241473319 -3.053197570101 0.9997095744873 -80.52778797484 0.9997095744873 -80.52778797484 0.0239255784512 22.012378380392
8.752900000000000 0.0239193637435 -3.057314337993 0.9997096849271 -80.52899666034 0.9997096849271 -80.52899666034 0.0239207969297 22.014098434670
8.753000000000000 0.0239145602892 -3.061444520816 0.9997097957952 -80.53020651790 0.9997097957952 -80.53020651790 0.0239159955555 22.015829692890
8.753100000000000 0.0239097368469 -3.065588211197 0.9997099070948 -80.53141755479 0.9997099070948 -80.53141755479 0.0239111742060 22.017572229864
8.753200000000001 0.0239048933039 -3.069745492970 0.9997100188281 -80.53262977766 0.9997100188281 -80.53262977766 0.0239063327690 22.019326118201
8.753300000000001 0.0239000295150 -3.073916471774 0.9997101309983 -80.53384319510 0.9997101309983 -80.53384319510 0.0239014710990 22.021091445988
8.753400000000001 0.0238951453661 -3.078101230505 0.9997102436065 -80.53505781386 0.9997102436065 -80.53505781386 0.0238965890827 22.022868289143
8.753500000000001 0.0238902407405 -3.082299858840 0.9997103566558 -80.53627364087 0.9997103566558 -80.53627364087 0.0238916866029 22.024656720670
8.753600000000000 0.0238853155057 -3.086512454957 0.9997104701491 -80.53749068396 0.9997104701491 -80.53749068396 0.0238867635274 22.026456822889
8.753700000000000 0.0238803695287 -3.090739115192 0.9997105840885 -80.53870895098 0.9997105840885 -80.53870895098 0.0238818197235 22.028268680748
8.753800000000000 0.0238754026925 -3.094979928092 0.9997106984763 -80.53992844890 0.9997106984763 -80.53992844890 0.0238768550742 22.030092369908
8.753900000000000 0.0238704148589 -3.099234997559 0.9997108133161 -80.54114918588 0.9997108133161 -80.54114918588 0.0238718694411 22.031927974776
8.754000000000001 0.0238654059049 -3.103504412495 0.9997109286090 -80.54237116919 0.9997109286090 -80.54237116919 0.0238668627019 22.033775577712
8.754100000000001 0.0238603756948 -3.107788276566 0.9997110443589 -80.54359440689 0.9997110443589 -80.54359440689 0.0238618347205 22.035635261565
8.754200000000001 0.0238553240973 -3.112086685560 0.9997111605674 -80.54481890673 0.9997111605674 -80.54481890673 0.0238567853662 22.037507112086
8.754300000000001 0.0238502509531 -3.116399755863 0.9997112772382 -80.54604467815 0.9997112772382 -80.54604467815 0.0238517144795 22.039391226703
8.754400000000000 0.0238451561775 -3.120727557521 0.9997113943729 -80.54727172618 0.9997113943729 -80.54727172618 0.0238466219760 22.041287665677
8.754500000000000 0.0238400395917 -3.125070219378 0.9997115119755 -80.54850006138 0.9997115119755 -80.54850006138 0.0238415076767 22.043196536716
8.754600000000000 0.0238349010760 -3.129427831192 0.9997116300474 -80.54972969086 0.9997116300474 -80.54972969086 0.0238363714624 22.045117920551
8.754700000000000 0.0238297405004 -3.133800492533 0.9997117485918 -80.55096062231 0.9997117485918 -80.55096062231 0.0238312132031 22.047051900249
8.754800000000001 0.0238245577048 -3.138188321153 0.9997118676119 -80.55219286521 0.9997118676119 -80.55219286521 0.0238260327387 22.048998575128
8.754900000000001 0.0238193525646 -3.142591411836 0.9997119871100 -80.55342642694 0.9997119871100 -80.55342642694 0.0238208299449 22.050958027761
8.755000000000001 0.0238141249297 -3.147009875488 0.9997121070888 -80.55466131638 0.9997121070888 -80.55466131638 0.0238156046719 22.052930353766
8.755100000000001 0.0238088746666 -3.151443814287 0.9997122275510 -80.55589754145 0.9997122275510 -80.55589754145 0.0238103567859 22.054915639807
8.755200000000000 0.0238036016181 -3.155893344366 0.9997123484998 -80.55713511145 0.9997123484998 -80.55713511145 0.0238050861303 22.056913985210
8.755300000000000 0.0237983056449 -3.160358573883 0.9997124699388 -80.55837403465 0.9997124699388 -80.55837403465 0.0237997925652 22.058925478360
8.755400000000000 0.0237929865948 -3.164839613392 0.9997125918698 -80.55961432003 0.9997125918698 -80.55961432003 0.0237944759393 22.060950219255
8.755500000000001 0.0237876443335 -3.169336566892 0.9997127142958 -80.56085597557 0.9997127142958 -80.56085597557 0.0237891361181 22.062988295571
8.755600000000001 0.0237822787004 -3.173849554329 0.9997128372200 -80.56209901077 0.9997128372200 -80.56209901077 0.0237837729413 22.065039809009
8.755700000000001 0.0237768895470 -3.178378686059 0.9997129606445 -80.56334343444 0.9997129606445 -80.56334343444 0.0237783862607 22.067104857764
8.755800000000001 0.0237714767205 -3.182924081510 0.9997130845741 -80.56458925561 0.9997130845741 -80.56458925561 0.0237729759230 22.069183536562
8.755900000000000 0.0237660400665 -3.187485854551 0.9997132090106 -80.56583648345 0.9997132090106 -80.56583648345 0.0237675417745 22.071275947781
8.756000000000000 0.0237605794373 -3.192064117670 0.9997133339568 -80.56708512669 0.9997133339568 -80.56708512669 0.0237620836675 22.073382188196
8.756100000000000 0.0237550946750 -3.196658991334 0.9997134594163 -80.56833519469 0.9997134594163 -80.56833519469 0.0237566014442 22.075502358926
8.756200000000000 0.0237495856137 -3.201270598692 0.9997135853918 -80.56958669728 0.9997135853918 -80.56958669728 0.0237510949391 22.077636567654
8.756300000000001 0.0237440521013 -3.205899057154 0.9997137118866 -80.57083964347 0.9997137118866 -80.57083964347 0.0237455639999 22.079784913329
8.756400000000001 0.0237384939842 -3.210544483612 0.9997138389036 -80.57209404235 0.9997138389036 -80.57209404235 0.0237400084735 22.081947497250
8.756500000000001 0.0237329110823 -3.215207013676 0.9997139664467 -80.57334990462 0.9997139664467 -80.57334990462 0.0237344281795 22.084124433035
8.756600000000001 0.0237273032565 -3.219886754136 0.9997140945177 -80.57460723848 0.9997140945177 -80.57460723848 0.0237288229795 22.086315816693
8.756700000000000 0.0237216703257 -3.224583843875 0.9997142231214 -80.57586605470 0.9997142231214 -80.57586605470 0.0237231926920 22.088521761075
8.756800000000000 0.0237160121263 -3.229298404293 0.9997143522598 -80.57712636295 0.9997143522598 -80.57712636295 0.0237175371541 22.090742376716
8.756900000000000 0.0237103284992 -3.234030560080 0.9997144819365 -80.57838817266 0.9997144819365 -80.57838817266 0.0237118562065 22.092977766766
8.757000000000000 0.0237046192677 -3.238780444880 0.9997146121552 -80.57965149430 0.9997146121552 -80.57965149430 0.0237061496728 22.095228045958
8.757100000000001 0.0236988842612 -3.243548187195 0.9997147429184 -80.58091633798 0.9997147429184 -80.58091633798 0.0237004173828 22.097493327628
8.757200000000001 0.0236931233141 -3.248333917122 0.9997148742302 -80.58218271352 0.9997148742302 -80.58218271352 0.0236946591705 22.099773719248
8.757300000000001 0.0236873362543 -3.253137764224 0.9997150060930 -80.58345063112 0.9997150060930 -80.58345063112 0.0236888748646 22.102069336017
8.757400000000001 0.0236815229032 -3.257959867138 0.9997151385114 -80.58472010135 0.9997151385114 -80.58472010135 0.0236830642862 22.104380292755
8.757500000000000 0.0236756830876 -3.262800358316 0.9997152714882 -80.58599113450 0.9997152714882 -80.58599113450 0.0236772272623 22.106706704781
8.757600000000000 0.0236698166182 -3.267659379350 0.9997154050263 -80.58726374176 0.9997154050263 -80.58726374176 0.0236713636043 22.109048697188
8.757700000000000 0.0236639233285 -3.272537061821 0.9997155391296 -80.58853793301 0.9997155391296 -80.58853793301 0.0236654731455 22.111406380111
8.757800000000001 0.0236580030355 -3.277433546053 0.9997156738016 -80.58981371909 0.9997156738016 -80.58981371909 0.0236595557031 22.113779874312
8.757900000000001 0.0236520555474 -3.282348980783 0.9997158090469 -80.59109111140 0.9997158090469 -80.59109111140 0.0236536110851 22.116169303412
8.758000000000001 0.0236460806887 -3.287283499260 0.9997159448675 -80.59237012031 0.9997159448675 -80.59237012031 0.0236476391168 22.118574787871
8.758100000000001 0.0236400782712 -3.292237245891 0.9997160812669 -80.59365075698 0.9997160812669 -80.59365075698 0.0236416396102 22.120996452373
8.758200000000000 0.0236340481029 -3.297210370897 0.9997162182499 -80.59493303280 0.9997162182499 -80.59493303280 0.0236356123731 22.123434421708
8.758300000000000 0.0236279900086 -3.302203010177 0.9997163558191 -80.59621695815 0.9997163558191 -80.59621695815 0.0236295572308 22.125888815684
8.758400000000000 0.0236219037813 -3.307215323829 0.9997164939794 -80.59750254532 0.9997164939794 -80.59750254532 0.0236234739759 22.128359767829
8.758500000000000 0.0236157892360 -3.312247452650 0.9997166327330 -80.59878980525 0.9997166327330 -80.59878980525 0.0236173624245 22.130847405673
8.758600000000001 0.0236096461688 -3.317299556008 0.9997167720847 -80.60007875005 0.9997167720847 -80.60007875005 0.0236112223723 22.133351861591
8.758700000000001 0.0236034743973 -3.322371775706 0.9997169120373 -80.60136939052 0.9997169120373 -80.60136939052 0.0236050536374 22.135873261074
8.758800000000001 0.0235972737105 -3.327464276212 0.9997170525959 -80.60266173918 0.9997170525959 -80.60266173918 0.0235988560087 22.138411741191
8.758900000000001 0.0235910439197 -3.332577204632 0.9997171937636 -80.60395580722 0.9997171937636 -80.60395580722 0.0235926292978 22.140967431007
8.759000000000000 0.0235847848086 -3.337710724740 0.9997173355434 -80.60525160745 0.9997173355434 -80.60525160745 0.0235863732891 22.143540475602
8.759100000000000 0.0235784961850 -3.342864991195 0.9997174779404 -80.60654915128 0.9997174779404 -80.60654915128 0.0235800877900 22.146131002968
8.759200000000000 0.0235721778456 -3.348040162610 0.9997176209582 -80.60784845078 0.9997176209582 -80.60784845078 0.0235737725976 22.148739150151
8.759300000000001 0.0235658295699 -3.353236408641 0.9997177646008 -80.60914951900 0.9997177646008 -80.60914951900 0.0235674274917 22.151365064097
8.759400000000001 0.0235594511540 -3.358453890026 0.9997179088724 -80.61045236805 0.9997179088724 -80.61045236805 0.0235610522684 22.154008882664
8.759500000000001 0.0235530423955 -3.363692765717 0.9997180537765 -80.61175700992 0.9997180537765 -80.61175700992 0.0235546467257 22.156670744312
8.759600000000001 0.0235466030648 -3.368953212579 0.9997181993171 -80.61306345824 0.9997181993171 -80.61306345824 0.0235482106344 22.159350802038
8.759700000000000 0.0235401329629 -3.374235388592 0.9997183454980 -80.61437172479 0.9997183454980 -80.61437172479 0.0235417437958 22.162049193406
8.759800000000000 0.0235336318588 -3.379539476799 0.9997184923249 -80.61568182331 0.9997184923249 -80.61568182331 0.0235352459784 22.164766069401
8.759900000000000 0.0235270995444 -3.384865639407 0.9997186398006 -80.61699376612 0.9997186398006 -80.61699376612 0.0235287169749 22.167501575453
8.760000000000000 0.0235205357885 -3.390214056448 0.9997187879294 -80.61830756694 0.9997187879294 -80.61830756694 0.0235221565544 22.170255867355
8.760100000000001 0.0235139403667 -3.395584904691 0.9997189367155 -80.61962323907 0.9997189367155 -80.61962323907 0.0235155644927 22.173029097323
8.760200000000001 0.0235073130554 -3.400978363278 0.9997190861642 -80.62094079579 0.9997190861642 -80.62094079579 0.0235089405661 22.175821415550
8.760300000000001 0.0235006536357 -3.406394603029 0.9997192362783 -80.62226025008 0.9997192362783 -80.62226025008 0.0235022845564 22.178632975525
8.760400000000001 0.0234939618617 -3.411833815781 0.9997193870625 -80.62358161651 0.9997193870625 -80.62358161651 0.0234955962179 22.181463942488
8.760500000000000 0.0234872375112 -3.417296182674 0.9997195385224 -80.62490490831 0.9997195385224 -80.62490490831 0.0234888753282 22.184314466455
8.760600000000000 0.0234804803498 -3.422781884371 0.9997196906606 -80.62623013934 0.9997196906606 -80.62623013934 0.0234821216538 22.187184712083
8.760700000000000 0.0234736901309 -3.428291117811 0.9997198434828 -80.62755732425 0.9997198434828 -80.62755732425 0.0234753349479 22.190074844034
8.760800000000000 0.0234668666187 -3.433824069805 0.9997199969932 -80.62888647704 0.9997199969932 -80.62888647704 0.0234685149752 22.192985025281
8.760900000000001 0.0234600095792 -3.439380928410 0.9997201511965 -80.63021761159 0.9997201511965 -80.63021761159 0.0234616615016 22.195915416823
8.761000000000001 0.0234531187691 -3.444961885208 0.9997203060966 -80.63155074234 0.9997203060966 -80.63155074234 0.0234547742846 22.198866187710
8.761100000000001 0.0234461939319 -3.450567144628 0.9997204616990 -80.63288588450 0.9997204616990 -80.63288588450 0.0234478530675 22.201837511231
8.761200000000001 0.0234392348180 -3.456196902415 0.9997206180072 -80.63422305289 0.9997206180072 -80.63422305289 0.0234408976016 22.204829561928
8.761300000000000 0.0234322411974 -3.461851349068 0.9997207750268 -80.63556226117 0.9997207750268 -80.63556226117 0.0234339076564 22.207842498953
8.761400000000000 0.0234252127860 -3.467530704211 0.9997209327623 -80.63690352619 0.9997209327623 -80.63690352619 0.0234268829487 22.210876515575
8.761500000000000 0.0234181493516 -3.473235161005 0.9997210912194 -80.63824686174 0.9997210912194 -80.63824686175 0.0234198232459 22.213931773283
8.761600000000001 0.0234110506091 -3.478964937706 0.9997212504013 -80.63959228473 0.9997212504013 -80.63959228473 0.0234127282642 22.217008470390
8.761700000000001 0.0234039163312 -3.484720223663 0.9997214103127 -80.64093980866 0.9997214103127 -80.64093980866 0.0234055977762 22.220106768832
8.761800000000001 0.0233967462314 -3.490501246461 0.9997215709597 -80.64228945053 0.9997215709597 -80.64228945053 0.0233984314955 22.223226862616
8.761900000000001 0.0233895400582 -3.496308211706 0.9997217323471 -80.64364122530 0.9997217323471 -80.64364122530 0.0233912291706 22.226368928334
8.762000000000000 0.0233822975357 -3.502141340161 0.9997218944803 -80.64499514933 0.9997218944803 -80.64499514933 0.0233839905261 22.229533157027
8.762100000000000 0.0233750183879 -3.508000848920 0.9997220573626 -80.64635123899 0.9997220573626 -80.64635123899 0.0233767152870 22.232719744545
8.762200000000000 0.0233677023311 -3.513886970205 0.9997222210012 -80.64770951114 0.9997222210012 -80.64770951114 0.0233694031691 22.235928883231
8.762300000000000 0.0233603491031 -3.519799914270 0.9997223853994 -80.64906998134 0.9997223853994 -80.64906998134 0.0233620539110 22.239160762613
8.762400000000001 0.0233529584266 -3.525739906894 0.9997225505629 -80.65043266606 0.9997225505629 -80.65043266606 0.0233546672357 22.242415576206
8.762500000000001 0.0233455300140 -3.531707181757 0.9997227164976 -80.65179758239 0.9997227164976 -80.65179758239 0.0233472428556 22.245693523603
8.762600000000001 0.0233380635703 -3.537701974193 0.9997228832083 -80.65316474783 0.9997228832083 -80.65316474783 0.0233397804763 22.248994812421
8.762700000000001 0.0233305588191 -3.543724512087 0.9997230507006 -80.65453417881 0.9997230507006 -80.65453417881 0.0233322798214 22.252319637867
8.762800000000000 0.0233230154615 -3.549775035239 0.9997232189794 -80.65590589307 0.9997232189794 -80.65590589307 0.0233247405928 22.255668210830
8.762900000000000 0.0233154332122 -3.555853775992 0.9997233880494 -80.65727990754 0.9997233880494 -80.65727990754 0.0233171625058 22.259040735186
8.763000000000000 0.0233078117695 -3.561960982625 0.9997235579176 -80.65865624018 0.9997235579176 -80.65865624018 0.0233095452582 22.262437420776
8.763100000000000 0.0233001508277 -3.568096902710 0.9997237285893 -80.66003490912 0.9997237285893 -80.66003490912 0.0233018885449 22.265858483666
8.763200000000001 0.0232924500815 -3.574261782438 0.9997239000689 -80.66141593249 0.9997239000689 -80.66141593249 0.0232941920614 22.269304142535
8.763300000000001 0.0232847092372 -3.580455866168 0.9997240723628 -80.66279932775 0.9997240723628 -80.66279932775 0.0232864555141 22.272774606137
8.763400000000001 0.0232769279787 -3.586679409911 0.9997242454761 -80.66418511367 0.9997242454761 -80.66418511367 0.0232786785875 22.276270099825
8.763500000000001 0.0232691059889 -3.592932674517 0.9997244194152 -80.66557330910 0.9997244194152 -80.66557330910 0.0232708609644 22.279790847137
8.763600000000000 0.0232612429478 -3.599215920549 0.9997245941856 -80.66696393303 0.9997245941856 -80.66696393303 0.0232630023256 22.283337076805
8.763700000000000 0.0232533385461 -3.605529403270 0.9997247697927 -80.66835700385 0.9997247697927 -80.66835700385 0.0232551023622 22.286909012208
8.763800000000000 0.0232453924634 -3.611873390287 0.9997249462436 -80.66975254061 0.9997249462436 -80.66975254061 0.0232471607537 22.290506879753
8.763900000000001 0.0232374043563 -3.618248158604 0.9997251235435 -80.67115056371 0.9997251235435 -80.67115056371 0.0232391771573 22.294130925218
8.764000000000001 0.0232293739160 -3.624653964896 0.9997253016975 -80.67255109148 0.9997253016975 -80.67255109148 0.0232311512651 22.297781375264
8.764100000000001 0.0232213007996 -3.631091091692 0.9997254807121 -80.67395414430 0.9997254807121 -80.67395414430 0.0232230827343 22.301458473804
8.764200000000001 0.0232131846609 -3.637559824372 0.9997256605940 -80.67535974276 0.9997256605940 -80.67535974276 0.0232149712190 22.305162467617
8.764300000000000 0.0232050251704 -3.644060436721 0.9997258413488 -80.67676790643 0.9997258413488 -80.67676790643 0.0232068163903 22.308893597143
8.764400000000000 0.0231968219860 -3.650593212900 0.9997260229827 -80.67817865566 0.9997260229827 -80.67817865566 0.0231986179064 22.312652109724
8.764500000000000 0.0231885747519 -3.657158447679 0.9997262055026 -80.67959201158 0.9997262055026 -80.67959201158 0.0231903754120 22.316438260201
8.764600000000000 0.0231802831238 -3.663756428926 0.9997263889148 -80.68100799468 0.9997263889148 -80.68100799468 0.0231820885628 22.320252299288
8.764700000000001 0.0231719467556 -3.670387443592 0.9997265732245 -80.68242662550 0.9997265732245 -80.68242662550 0.0231737570140 22.324094481931
8.764800000000001 0.0231635652693 -3.677051803888 0.9997267584387 -80.68384792653 0.9997267584387 -80.68384792653 0.0231653803876 22.327965079098
8.764900000000001 0.0231551383100 -3.683749808873 0.9997269445644 -80.68527191887 0.9997269445644 -80.68527191887 0.0231569583291 22.331864349398
8.765000000000001 0.0231466655087 -3.690481764991 0.9997271316076 -80.68669862445 0.9997271316076 -80.68669862445 0.0231484904702 22.335792562715
8.765100000000000 0.0231381465149 -3.697247969887 0.9997273195748 -80.68812806412 0.9997273195748 -80.68812806412 0.0231399764606 22.339749978512
8.765200000000000 0.0231295809324 -3.704048752593 0.9997275084735 -80.68956026144 0.9997275084735 -80.68956026144 0.0231314159046 22.343736881720
8.765300000000000 0.0231209683836 -3.710884428803 0.9997276983099 -80.69099523885 0.9997276983099 -80.69099523885 0.0231228084253 22.347753550576
8.765400000000001 0.0231123084799 -3.717755320631 0.9997278890896 -80.69243301944 0.9997278890896 -80.69243301944 0.0231141536351 22.351800272458
8.765500000000001 0.0231036008705 -3.724661741436 0.9997280808231 -80.69387362415 0.9997280808231 -80.69387362415 0.0231054511818 22.355877302062
8.765600000000001 0.0230948451207 -3.731604035335 0.9997282735130 -80.69531707873 0.9997282735130 -80.69531707873 0.0230967006336 22.359984963970
8.765700000000001 0.0230860408600 -3.738582527335 0.9997284671685 -80.69676340529 0.9997284671685 -80.69676340529 0.0230879016193 22.364123529639
8.765800000000000 0.0230771876797 -3.745597563243 0.9997286617979 -80.69821262813 0.9997286617979 -80.69821262813 0.0230790537302 22.368293297877
8.765900000000000 0.0230682851822 -3.752649474288 0.9997288574054 -80.69966477087 0.9997288574054 -80.69966477087 0.0230701565704 22.372494570212
8.766000000000000 0.0230593329564 -3.759738612724 0.9997290540001 -80.70111985798 0.9997290540001 -80.70111985798 0.0230612097288 22.376727647397
8.766100000000000 0.0230503305834 -3.766865332685 0.9997292515891 -80.70257791439 0.9997292515891 -80.70257791439 0.0230522127870 22.380992840082
8.766200000000001 0.0230412776609 -3.774029976295 0.9997294501785 -80.70403896402 0.9997294501785 -80.70403896402 0.0230431653437 22.385290453530
8.766300000000001 0.0230321737538 -3.781232914528 0.9997296497769 -80.70550303277 0.9997296497769 -80.70550303277 0.0230340669639 22.389620807217
8.766400000000001 0.0230230184238 -3.788474521002 0.9997298503929 -80.70697014671 0.9997298503929 -80.70697014671 0.0230249172095 22.393984224614
8.766500000000001 0.0230138112753 -3.795755136037 0.9997300520316 -80.70844032939 0.9997300520316 -80.70844032939 0.0230157156864 22.398381013206
8.766600000000000 0.0230045518428 -3.803075154094 0.9997302547019 -80.70991360850 0.9997302547019 -80.70991360850 0.0230064619294 22.402811514655
8.766700000000000 0.0229952396935 -3.810434949172 0.9997304584119 -80.71139000981 0.9997304584119 -80.71139000981 0.0229971555058 22.407276054817
8.766800000000000 0.0229858743738 -3.817834909177 0.9997306631696 -80.71286956031 0.9997306631696 -80.71286956031 0.0229877959628 22.411774973632
8.766900000000000 0.0229764554600 -3.825275400183 0.9997308689808 -80.71435228522 0.9997308689808 -80.71435228522 0.0229783828779 22.416308599237
8.767000000000001 0.0229669824477 -3.832756847115 0.9997310758547 -80.71583821453 0.9997310758547 -80.71583821453 0.0229689157473 22.420877303183
8.767100000000001 0.0229574549028 -3.840279634457 0.9997312838003 -80.71732737413 0.9997312838003 -80.71732737413 0.0229593941367 22.425481415512
8.767200000000001 0.0229478723757 -3.847844152352 0.9997314928249 -80.71881979078 0.9997314928249 -80.71881979078 0.0229498175974 22.430121282202
8.767300000000001 0.0229382343702 -3.855450822380 0.9997317029361 -80.72031549400 0.9997317029361 -80.72031549400 0.0229401856345 22.434797277958
8.767400000000000 0.0229285404097 -3.863100062023 0.9997319141436 -80.72181451217 0.9997319141436 -80.72181451217 0.0229304977712 22.439509761948
8.767500000000000 0.0229187900211 -3.870792281038 0.9997321264547 -80.72331687348 0.9997321264547 -80.72331687348 0.0229207535356 22.444259099960
8.767600000000000 0.0229089827033 -3.878527911531 0.9997323398775 -80.72482260773 0.9997323398775 -80.72482260773 0.0229109524275 22.449045672989
8.767700000000001 0.0228991179783 -3.886307374363 0.9997325544207 -80.72633174341 0.9997325544207 -80.72633174341 0.0229010939693 22.453869849520
8.767800000000001 0.0228891953191 -3.894131123212 0.9997327700934 -80.72784431189 0.9997327700934 -80.72784431189 0.0228911776348 22.458732028608
8.767900000000001 0.0228792142407 -3.901999587686 0.9997329869044 -80.72936034207 0.9997329869044 -80.72936034207 0.0228812029395 22.463632586172
8.768000000000001 0.0228691742278 -3.909913218663 0.9997332048628 -80.73087986466 0.9997332048628 -80.73087986465 0.0228711693687 22.468571917842
8.768100000000000 0.0228590747628 -3.917872468076 0.9997334239767 -80.73240291046 0.9997334239767 -80.73240291046 0.0228610764058 22.473550424753
8.768200000000000 0.0228489153119 -3.925877800072 0.9997336442544 -80.73392951126 0.9997336442544 -80.73392951126 0.0228509235184 22.478568519728
8.768300000000000 0.0228386953645 -3.933929672544 0.9997338657062 -80.73545969752 0.9997338657062 -80.73545969752 0.0228407101956 22.483626598551
8.768400000000000 0.0228284143691 -3.942028564566 0.9997340883403 -80.73699350206 0.9997340883403 -80.73699350206 0.0228304358874 22.488725089484
8.768500000000001 0.0228180717840 -3.950174955664 0.9997343121664 -80.73853095717 0.9997343121664 -80.73853095717 0.0228201000528 22.493864412870
8.768600000000001 0.0228076670589 -3.958369335598 0.9997345371950 -80.74007209566 0.9997345371950 -80.74007209566 0.0228097021415 22.499044994852
8.768700000000001 0.0227971996640 -3.966612174061 0.9997347634331 -80.74161694907 0.9997347634331 -80.74161694907 0.0227992416256 22.504267259060
8.768800000000001 0.0227866689756 -3.974904013111 0.9997349908922 -80.74316555457 0.9997349908922 -80.74316555457 0.0227887178818 22.509531678963
8.768900000000000 0.0227760744703 -3.983245328543 0.9997352195813 -80.74471794338 0.9997352195813 -80.74471794338 0.0227781303874 22.514838674602
8.769000000000000 0.0227654155763 -3.991636629475 0.9997354495096 -80.74627414957 0.9997354495096 -80.74627414957 0.0227674785718 22.520188696998
8.769100000000000 0.0227546917050 -4.000078439051 0.9997356806868 -80.74783420822 0.9997356806868 -80.74783420822 0.0227567618471 22.525582209379
8.769200000000000 0.0227439022544 -4.008571296002 0.9997359131244 -80.74939815523 0.9997359131244 -80.74939815523 0.0227459796119 22.531019681124
8.769300000000001 0.0227330466075 -4.017115744412 0.9997361468313 -80.75096602735 0.9997361468313 -80.75096602735 0.0227351312506 22.536501599449
8.769400000000001 0.0227221242053 -4.025712297064 0.9997363818171 -80.75253785795 0.9997363818171 -80.75253785795 0.0227242162049 22.542028416735
8.769500000000001 0.0227111344205 -4.034361514361 0.9997366180926 -80.75411368442 0.9997366180926 -80.75411368442 0.0227132338485 22.547600627552
8.769600000000001 0.0227000766077 -4.043063972028 0.9997368556688 -80.75569354523 0.9997368556688 -80.75569354523 0.0227021835368 22.553218739447
8.769700000000000 0.0226889501782 -4.051820207815 0.9997370945546 -80.75727747551 0.9997370945546 -80.75727747551 0.0226910646823 22.558883232524
8.769800000000000 0.0226777544784 -4.060630811973 0.9997373347625 -80.75886551425 0.9997373347625 -80.75886551425 0.0226798766318 22.564594621728
8.769900000000000 0.0226664888512 -4.069496370304 0.9997375763013 -80.76045770059 0.9997375763013 -80.76045770059 0.0226686187302 22.570353435509
8.770000000000001 0.0226551526746 -4.078417457008 0.9997378191824 -80.76205407169 0.9997378191824 -80.76205407169 0.0226572903558 22.576160177169
8.770100000000001 0.0226437452638 -4.087394691607 0.9997380634185 -80.76365466838 0.9997380634185 -80.76365466838 0.0226458908244 22.582015388938