! Sonnet Data File
! From: emgraph Version : 16.52
! From Project: 171117_Xmon_fullysym
! Data is De-embedded 
! Data File Written: 11/26/2017 17:14:23
!< HDATE 11/22/2017 16:48:52
!< MDATE 11/23/2017 10:16:42
!< PARAMS
!< Lj = 11.0
!< Gap = 1.0
!< Pwid = 2000.0
!< Airgap = 6.0
!< Width = 10.0
!< Lj1 = 10.5
!< END PARAMS
# GHZ S MA R 50.90000
8.680000000000000 0.0250454258276 -1.525260366091 0.9996829142620 -79.78675566748 0.9996829142605 -79.78675566736 0.0250464400795 21.962444684281
!< P1 F=8.68 Eeff=(6.44843488 -2.9797e-5) Z0=(50.9086135 1.17022e-4) R=0.0 C=0.0 
!< P2 F=8.68 Eeff=(6.44843488 -2.9797e-5) Z0=(50.9086135 1.17022e-4) R=0.0 C=0.0 
8.680100000000001 0.0250446755920 -1.526829782956 0.9996829326442 -79.78772697778 0.9996829326442 -79.78772697778 0.0250456899869 21.962072643544
8.680200000000001 0.0250439241222 -1.528399914761 0.9996829510560 -79.78869836037 0.9996829510560 -79.78869836037 0.0250449386622 21.961701184242
8.680300000000001 0.0250431714124 -1.529970770839 0.9996829694978 -79.78966981553 0.9996829694978 -79.78966981553 0.0250441860978 21.961330308548
8.680400000000001 0.0250424174594 -1.531542353797 0.9996829879702 -79.79064134343 0.9996829879702 -79.79064134343 0.0250434322905 21.960960017218
8.680500000000000 0.0250416622601 -1.533114665302 0.9996830064730 -79.79161294427 0.9996830064730 -79.79161294427 0.0250426772371 21.960590312247
8.680600000000000 0.0250409058115 -1.534687706780 0.9996830250062 -79.79258461822 0.9996830250062 -79.79258461822 0.0250419209350 21.960221195286
8.680700000000000 0.0250401481119 -1.536261480052 0.9996830435701 -79.79355636537 0.9996830435701 -79.79355636537 0.0250411633821 21.959852666669
8.680800000000001 0.0250393891581 -1.537835986545 0.9996830621645 -79.79452818594 0.9996830621645 -79.79452818594 0.0250404045753 21.959484728688
8.680900000000001 0.0250386289469 -1.539411228276 0.9996830807896 -79.79550008008 0.9996830807896 -79.79550008008 0.0250396445115 21.959117382515
8.681000000000001 0.0250378674769 -1.540987206212 0.9996830994454 -79.79647204789 0.9996830994454 -79.79647204789 0.0250388831893 21.958750629163
8.681100000000001 0.0250371047450 -1.542563922492 0.9996831181320 -79.79744408956 0.9996831181320 -79.79744408956 0.0250381206054 21.958384469925
8.681200000000000 0.0250363407464 -1.544141379811 0.9996831368495 -79.79841620536 0.9996831368495 -79.79841620536 0.0250373567552 21.958018907250
8.681300000000000 0.0250355754805 -1.545719578569 0.9996831555980 -79.79938839533 0.9996831555980 -79.79938839533 0.0250365916381 21.957653941585
8.681400000000000 0.0250348089438 -1.547298521369 0.9996831743775 -79.80036065968 0.9996831743775 -79.80036065968 0.0250358252503 21.957289574470
8.681500000000000 0.0250340411319 -1.548878210121 0.9996831931881 -79.80133299866 0.9996831931881 -79.80133299866 0.0250350575880 21.956925808303
8.681600000000001 0.0250332720453 -1.550458645085 0.9996832120297 -79.80230541225 0.9996832120297 -79.80230541225 0.0250342886511 21.956562643041
8.681700000000001 0.0250325016781 -1.552039830005 0.9996832309027 -79.80327790080 0.9996832309027 -79.80327790080 0.0250335184339 21.956200081171
8.681800000000001 0.0250317300302 -1.553621764744 0.9996832498069 -79.80425046430 0.9996832498069 -79.80425046430 0.0250327469365 21.955838123122
8.681900000000001 0.0250309570956 -1.555204452702 0.9996832687423 -79.80522310311 0.9996832687423 -79.80522310311 0.0250319741527 21.955476771921
8.682000000000000 0.0250301828729 -1.556787895539 0.9996832877094 -79.80619581733 0.9996832877094 -79.80619581733 0.0250312000811 21.955116027703
8.682100000000000 0.0250294073600 -1.558372093407 0.9996833067076 -79.80716860705 0.9996833067076 -79.80716860705 0.0250304247198 21.954755892671
8.682200000000000 0.0250286305535 -1.559957049500 0.9996833257375 -79.80814147250 0.9996833257375 -79.80814147250 0.0250296480651 21.954396367600
8.682300000000000 0.0250278524504 -1.561542765340 0.9996833447991 -79.80911441385 0.9996833447991 -79.80911441385 0.0250288701142 21.954037454257
8.682400000000001 0.0250270730477 -1.563129242630 0.9996833638923 -79.81008743127 0.9996833638923 -79.81008743127 0.0250280908640 21.953679154223
8.682500000000001 0.0250262923422 -1.564716483439 0.9996833830172 -79.81106052495 0.9996833830172 -79.81106052495 0.0250273103114 21.953321469033
8.682600000000001 0.0250255103317 -1.566304489035 0.9996834021739 -79.81203369501 0.9996834021739 -79.81203369501 0.0250265284542 21.952964400016
8.682700000000001 0.0250247270132 -1.567893261650 0.9996834213625 -79.81300694165 0.9996834213625 -79.81300694165 0.0250257452893 21.952607948343
8.682800000000000 0.0250239423825 -1.569482803507 0.9996834405831 -79.81398026510 0.9996834405831 -79.81398026510 0.0250249608125 21.952252116384
8.682900000000000 0.0250231564397 -1.571073114759 0.9996834598356 -79.81495366537 0.9996834598356 -79.81495366537 0.0250241750241 21.951896904157
8.683000000000000 0.0250223691782 -1.572664199619 0.9996834791204 -79.81592714283 0.9996834791204 -79.81592714283 0.0250233879171 21.951542314635
8.683100000000001 0.0250215805965 -1.574256058455 0.9996834984372 -79.81690069758 0.9996834984372 -79.81690069758 0.0250225994904 21.951188349043
8.683200000000001 0.0250207906926 -1.575848693073 0.9996835177862 -79.81787432972 0.9996835177862 -79.81787432972 0.0250218097420 21.950835008132
8.683300000000001 0.0250199994617 -1.577442106277 0.9996835371676 -79.81884803956 0.9996835371676 -79.81884803956 0.0250210186668 21.950482294302
8.683400000000001 0.0250192069015 -1.579036299454 0.9996835565813 -79.81982182722 0.9996835565813 -79.81982182722 0.0250202262627 21.950130208789
8.683500000000000 0.0250184130093 -1.580631274382 0.9996835760275 -79.82079569286 0.9996835760275 -79.82079569286 0.0250194325269 21.949778752917
8.683600000000000 0.0250176177843 -1.582227031541 0.9996835955060 -79.82176963653 0.9996835955060 -79.82176963653 0.0250186374587 21.949427927507
8.683700000000000 0.0250168212181 -1.583823575978 0.9996836150173 -79.82274365872 0.9996836150173 -79.82274365872 0.0250178410497 21.949077736114
8.683800000000000 0.0250160233125 -1.585420906888 0.9996836345611 -79.82371775933 0.9996836345611 -79.82371775933 0.0250170433016 21.948728178227
8.683900000000001 0.0250152240619 -1.587019027223 0.9996836541376 -79.82469193869 0.9996836541376 -79.82469193869 0.0250162442089 21.948379256851
8.684000000000001 0.0250144234658 -1.588617937954 0.9996836737469 -79.82566619682 0.9996836737469 -79.82566619682 0.0250154437711 21.948030972022
8.684100000000001 0.0250136215174 -1.590217643144 0.9996836933892 -79.82664053413 0.9996836933892 -79.82664053413 0.0250146419813 21.947683326850
8.684200000000001 0.0250128182174 -1.591818141924 0.9996837130643 -79.82761495057 0.9996837130643 -79.82761495057 0.0250138388403 21.947336321771
8.684300000000000 0.0250120135595 -1.593419438669 0.9996837327724 -79.82858944653 0.9996837327724 -79.82858944653 0.0250130343418 21.946989959297
8.684400000000000 0.0250112075431 -1.595021533647 0.9996837525136 -79.82956402202 0.9996837525136 -79.82956402202 0.0250122284851 21.946644240007
8.684500000000000 0.0250104001630 -1.596624429780 0.9996837722879 -79.83053867736 0.9996837722879 -79.83053867736 0.0250114212651 21.946299166633
8.684600000000000 0.0250095914177 -1.598228128453 0.9996837920954 -79.83151341264 0.9996837920954 -79.83151341264 0.0250106126803 21.945954739814
8.684700000000001 0.0250087813037 -1.599832631633 0.9996838119362 -79.83248822806 0.9996838119362 -79.83248822806 0.0250098027272 21.945610961303
8.684800000000001 0.0250079698171 -1.601437942006 0.9996838318105 -79.83346312386 0.9996838318105 -79.83346312386 0.0250089914018 21.945267832985
8.684900000000001 0.0250071569559 -1.603044060484 0.9996838517181 -79.83443810015 0.9996838517181 -79.83443810015 0.0250081787022 21.944925356171
8.685000000000000 0.0250063427159 -1.604650989764 0.9996838716593 -79.83541315717 0.9996838716593 -79.83541315717 0.0250073646242 21.944583532692
8.685100000000000 0.0250055270947 -1.606258731367 0.9996838916340 -79.83638829508 0.9996838916340 -79.83638829508 0.0250065491653 21.944242364111
8.685200000000000 0.0250047100883 -1.607867287580 0.9996839116423 -79.83736351409 0.9996839116423 -79.83736351409 0.0250057323217 21.943901852314
8.685300000000000 0.0250038916960 -1.609476659519 0.9996839316844 -79.83833881427 0.9996839316844 -79.83833881427 0.0250049140925 21.943561997442
8.685400000000001 0.0250030719103 -1.611086851205 0.9996839517603 -79.83931419604 0.9996839517603 -79.83931419604 0.0250040944703 21.943222803476
8.685500000000001 0.0250022507309 -1.612697863159 0.9996839718702 -79.84028965944 0.9996839718702 -79.84028965944 0.0250032734547 21.942884270469
8.685600000000001 0.0250014281547 -1.614309696698 0.9996839920137 -79.84126520462 0.9996839920138 -79.84126520462 0.0250024510428 21.942546400569
8.685700000000001 0.0250006041779 -1.615922355052 0.9996840121915 -79.84224083183 0.9996840121915 -79.84224083183 0.0250016272307 21.942209195055
8.685800000000000 0.0249997787971 -1.617535840108 0.9996840324034 -79.84321654126 0.9996840324034 -79.84321654126 0.0250008020149 21.941872655619
8.685900000000000 0.0249989520083 -1.619150153991 0.9996840526494 -79.84419233316 0.9996840526494 -79.84419233316 0.0249999753915 21.941536784724
8.686000000000000 0.0249981238100 -1.620765297996 0.9996840729297 -79.84516820759 0.9996840729297 -79.84516820759 0.0249991473590 21.941201582936
8.686100000000000 0.0249972941976 -1.622381274802 0.9996840932443 -79.84614416485 0.9996840932443 -79.84614416485 0.0249983179127 21.940867052654
8.686200000000001 0.0249964631681 -1.623998086411 0.9996841135934 -79.84712020510 0.9996841135934 -79.84712020510 0.0249974870498 21.940533195230
8.686300000000001 0.0249956307177 -1.625615735091 0.9996841339769 -79.84809632857 0.9996841339769 -79.84809632857 0.0249966547664 21.940200012773
8.686400000000001 0.0249947968455 -1.627234221538 0.9996841543950 -79.84907253530 0.9996841543950 -79.84907253530 0.0249958210615 21.939867505779
8.686500000000001 0.0249939615437 -1.628853550088 0.9996841748476 -79.85004882577 0.9996841748476 -79.85004882577 0.0249949859275 21.939535678257
8.686600000000000 0.0249931248138 -1.630473720837 0.9996841953350 -79.85102519989 0.9996841953350 -79.85102519989 0.0249941493657 21.939204529183
8.686700000000000 0.0249922866500 -1.632094736586 0.9996842158572 -79.85200165798 0.9996842158572 -79.85200165798 0.0249933113704 21.938874061737
8.686800000000000 0.0249914470482 -1.633716599801 0.9996842364142 -79.85297820030 0.9996842364142 -79.85297820030 0.0249924719376 21.938544278206
8.686900000000001 0.0249906060072 -1.635339312201 0.9996842570063 -79.85395482692 0.9996842570063 -79.85395482692 0.0249916310659 21.938215178464
8.687000000000001 0.0249897635228 -1.636962875467 0.9996842776333 -79.85493153808 0.9996842776333 -79.85493153808 0.0249907887512 21.937886765464
8.687100000000001 0.0249889195903 -1.638587293023 0.9996842982955 -79.85590833407 0.9996842982955 -79.85590833407 0.0249899449888 21.937559041014
8.687200000000001 0.0249880742078 -1.640212565547 0.9996843189928 -79.85688521498 0.9996843189928 -79.85688521498 0.0249890997768 21.937232006720
8.687300000000000 0.0249872273717 -1.641838695817 0.9996843397253 -79.85786218104 0.9996843397253 -79.85786218104 0.0249882531116 21.936905663851
8.687400000000000 0.0249863790778 -1.643465686291 0.9996843604933 -79.85883923249 0.9996843604933 -79.85883923249 0.0249874049891 21.936580014687
8.687500000000000 0.0249855293241 -1.645093537923 0.9996843812965 -79.85981636945 0.9996843812965 -79.85981636945 0.0249865554072 21.936255060715
8.687600000000000 0.0249846781062 -1.646722254379 0.9996844021354 -79.86079359219 0.9996844021354 -79.86079359219 0.0249857043613 21.935930803227
8.687700000000001 0.0249838254201 -1.648351837084 0.9996844230098 -79.86177090092 0.9996844230098 -79.86177090092 0.0249848518478 21.935607245147
8.687800000000001 0.0249829712631 -1.649982288059 0.9996844439198 -79.86274829582 0.9996844439198 -79.86274829582 0.0249839978638 21.935284387602
8.687900000000001 0.0249821156319 -1.651613609892 0.9996844648657 -79.86372577708 0.9996844648657 -79.86372577708 0.0249831424059 21.934962231943
8.688000000000001 0.0249812585235 -1.653245803930 0.9996844858473 -79.86470334487 0.9996844858473 -79.86470334487 0.0249822854713 21.934640780174
8.688100000000000 0.0249803999325 -1.654878873582 0.9996845068649 -79.86568099952 0.9996845068649 -79.86568099952 0.0249814270544 21.934320034900
8.688200000000000 0.0249795398565 -1.656512820398 0.9996845279184 -79.86665874116 0.9996845279184 -79.86665874116 0.0249805671530 21.933999997251
8.688300000000000 0.0249786782915 -1.658147647033 0.9996845490080 -79.86763657003 0.9996845490080 -79.86763657003 0.0249797057630 21.933680669240
8.688400000000000 0.0249778152360 -1.659783354406 0.9996845701337 -79.86861448622 0.9996845701337 -79.86861448622 0.0249788428828 21.933362051960
8.688500000000001 0.0249769506843 -1.661419945953 0.9996845912957 -79.86959249006 0.9996845912957 -79.86959249006 0.0249779785070 21.933044147951
8.688600000000001 0.0249760846337 -1.663057423128 0.9996846124938 -79.87057058172 0.9996846124938 -79.87057058172 0.0249771126327 21.932726959014
8.688700000000001 0.0249752170790 -1.664695789648 0.9996846337285 -79.87154876150 0.9996846337285 -79.87154876150 0.0249762452546 21.932410487325
8.688800000000001 0.0249743480195 -1.666335045880 0.9996846549996 -79.87252702943 0.9996846549996 -79.87252702943 0.0249753763722 21.932094733503
8.688900000000000 0.0249734774491 -1.667975195531 0.9996846763073 -79.87350538589 0.9996846763073 -79.87350538589 0.0249745059793 21.931779700667
8.689000000000000 0.0249726053664 -1.669616239810 0.9996846976517 -79.87448383096 0.9996846976517 -79.87448383096 0.0249736340745 21.931465389302
8.689100000000000 0.0249717317652 -1.671258181836 0.9996847190327 -79.87546236498 0.9996847190327 -79.87546236498 0.0249727606517 21.931151802934
8.689200000000001 0.0249708566442 -1.672901023151 0.9996847404506 -79.87644098806 0.9996847404506 -79.87644098806 0.0249718857094 21.930838942129
8.689300000000001 0.0249699799991 -1.674544766071 0.9996847619053 -79.87741970043 0.9996847619053 -79.87741970043 0.0249710092435 21.930526809175
8.689400000000001 0.0249691018249 -1.676189413950 0.9996847833970 -79.87839850240 0.9996847833970 -79.87839850240 0.0249701312489 21.930215406244
8.689500000000001 0.0249682221200 -1.677834967678 0.9996848049258 -79.87937739405 0.9996848049258 -79.87937739405 0.0249692517241 21.929904734529
8.689600000000000 0.0249673408789 -1.679481430466 0.9996848264917 -79.88035637572 0.9996848264917 -79.88035637572 0.0249683706635 21.929594796993
8.689700000000000 0.0249664581003 -1.681128803967 0.9996848480950 -79.88133544747 0.9996848480950 -79.88133544747 0.0249674880658 21.929285593679
8.689800000000000 0.0249655737778 -1.682777091382 0.9996848697355 -79.88231460969 0.9996848697355 -79.88231460969 0.0249666039246 21.928977128371
8.689900000000000 0.0249646879090 -1.684426294394 0.9996848914134 -79.88329386251 0.9996848914134 -79.88329386251 0.0249657182376 21.928669402192
8.690000000000001 0.0249638004904 -1.686076415294 0.9996849131288 -79.88427320615 0.9996849131288 -79.88427320615 0.0249648310012 21.928362417041
8.690100000000001 0.0249629115174 -1.687727456837 0.9996849348817 -79.88525264087 0.9996849348817 -79.88525264087 0.0249639422108 21.928056175221
8.690200000000001 0.0249620209861 -1.689379421717 0.9996849566724 -79.88623216690 0.9996849566724 -79.88623216690 0.0249630518626 21.927750678442
8.690300000000001 0.0249611288936 -1.691032311394 0.9996849785007 -79.88721178442 0.9996849785007 -79.88721178442 0.0249621599536 21.927445928761
8.690400000000000 0.0249602352358 -1.692686128822 0.9996850003670 -79.88819149366 0.9996850003670 -79.88819149366 0.0249612664798 21.927141927773
8.690500000000000 0.0249593400102 -1.694340875598 0.9996850222712 -79.88917129478 0.9996850222712 -79.88917129478 0.0249603714385 21.926838676958
8.690600000000000 0.0249584432111 -1.695996554899 0.9996850442133 -79.89015118811 0.9996850442133 -79.89015118811 0.0249594748243 21.926536179396
8.690700000000001 0.0249575448347 -1.697653169280 0.9996850661935 -79.89113117386 0.9996850661935 -79.89113117387 0.0249585766332 21.926234436827
8.690800000000001 0.0249566448768 -1.699310721818 0.9996850882122 -79.89211125231 0.9996850882122 -79.89211125231 0.0249576768609 21.925933451107
8.690900000000001 0.0249557433367 -1.700969212222 0.9996851102688 -79.89309142346 0.9996851102688 -79.89309142346 0.0249567755071 21.925633223447
8.691000000000001 0.0249548402081 -1.702628645076 0.9996851323640 -79.89407168772 0.9996851323640 -79.89407168772 0.0249558725651 21.925333756356
8.691100000000000 0.0249539354867 -1.704289022838 0.9996851544976 -79.89505204532 0.9996851544976 -79.89505204532 0.0249549680307 21.925035052274
8.691200000000000 0.0249530291698 -1.705950347093 0.9996851766698 -79.89603249642 0.9996851766698 -79.89603249642 0.0249540619013 21.924737112730
8.691300000000000 0.0249521212527 -1.707612620911 0.9996851988806 -79.89701304131 0.9996851988806 -79.89701304131 0.0249531541722 21.924439939972
8.691400000000000 0.0249512117316 -1.709275846452 0.9996852211300 -79.89799368020 0.9996852211300 -79.89799368020 0.0249522448395 21.924143536226
8.691500000000001 0.0249503006043 -1.710940025871 0.9996852434184 -79.89897441323 0.9996852434184 -79.89897441323 0.0249513339010 21.923847902113
8.691600000000001 0.0249493878629 -1.712605163055 0.9996852657456 -79.89995524086 0.9996852657456 -79.89995524086 0.0249504213491 21.923553042126
8.691700000000001 0.0249484735073 -1.714271258697 0.9996852881118 -79.90093616310 0.9996852881118 -79.90093616310 0.0249495071833 21.923258956313
8.691800000000001 0.0249475575322 -1.715938316249 0.9996853105172 -79.90191718025 0.9996853105172 -79.90191718025 0.0249485913984 21.922965647107
8.691900000000000 0.0249466399331 -1.717606338219 0.9996853329617 -79.90289829260 0.9996853329617 -79.90289829260 0.0249476739900 21.922673117154
8.692000000000000 0.0249457207062 -1.719275326910 0.9996853554455 -79.90387950035 0.9996853554455 -79.90387950035 0.0249467549543 21.922381368303
8.692100000000000 0.0249447998486 -1.720945284676 0.9996853779687 -79.90486080368 0.9996853779687 -79.90486080368 0.0249458342883 21.922090401927
8.692200000000000 0.0249438773553 -1.722616214352 0.9996854005313 -79.90584220288 0.9996854005313 -79.90584220288 0.0249449119871 21.921800220684
8.692300000000001 0.0249429532208 -1.724288119290 0.9996854231336 -79.90682369828 0.9996854231336 -79.90682369828 0.0249439880452 21.921510827355
8.692400000000001 0.0249420274443 -1.725961000388 0.9996854457755 -79.90780528993 0.9996854457755 -79.90780528993 0.0249430624616 21.921222222344
8.692500000000001 0.0249411000194 -1.727634861096 0.9996854684571 -79.90878697820 0.9996854684571 -79.90878697820 0.0249421352303 21.920934409215
8.692600000000001 0.0249401709425 -1.729309704005 0.9996854911786 -79.90976876331 0.9996854911785 -79.90976876331 0.0249412063474 21.920647389583
8.692700000000000 0.0249392402107 -1.730985531103 0.9996855139399 -79.91075064542 0.9996855139399 -79.91075064542 0.0249402758100 21.920361165064
8.692800000000000 0.0249383078176 -1.732662346078 0.9996855367413 -79.91173262491 0.9996855367413 -79.91173262491 0.0249393436118 21.920075738883
8.692900000000000 0.0249373737599 -1.734340151111 0.9996855595829 -79.91271470198 0.9996855595829 -79.91271470198 0.0249384097496 21.919791112752
8.693000000000001 0.0249364380355 -1.736018947935 0.9996855824646 -79.91369687675 0.9996855824646 -79.91369687675 0.0249374742210 21.919507287763
8.693100000000001 0.0249355006380 -1.737698740139 0.9996856053867 -79.91467914960 0.9996856053867 -79.91467914960 0.0249365370198 21.919224267176
8.693200000000001 0.0249345615631 -1.739379530537 0.9996856283493 -79.91566152078 0.9996856283493 -79.91566152078 0.0249355981418 21.918942053196
8.693300000000001 0.0249336208090 -1.741061320303 0.9996856513522 -79.91664399040 0.9996856513522 -79.91664399040 0.0249346575850 21.918660647070
8.693400000000000 0.0249326783686 -1.742744114017 0.9996856743959 -79.91762655888 0.9996856743959 -79.91762655888 0.0249337153423 21.918380051997
8.693500000000000 0.0249317342388 -1.744427913205 0.9996856974802 -79.91860922639 0.9996856974802 -79.91860922639 0.0249327714108 21.918100270045
8.693600000000000 0.0249307884157 -1.746112720904 0.9996857206053 -79.91959199317 0.9996857206053 -79.91959199317 0.0249318257865 21.917821302720
8.693700000000000 0.0249298408956 -1.747798539036 0.9996857437713 -79.92057485943 0.9996857437713 -79.92057485943 0.0249308784656 21.917543152461
8.693800000000001 0.0249288916734 -1.749485371270 0.9996857669783 -79.92155782549 0.9996857669783 -79.92155782549 0.0249299294431 21.917265821518
8.693900000000001 0.0249279407443 -1.751173220083 0.9996857902264 -79.92254089162 0.9996857902264 -79.92254089162 0.0249289787142 21.916989312576
8.694000000000001 0.0249269881048 -1.752862087950 0.9996858135157 -79.92352405802 0.9996858135157 -79.92352405802 0.0249280262755 21.916713627369
8.694100000000001 0.0249260337496 -1.754551978286 0.9996858368463 -79.92450732500 0.9996858368463 -79.92450732500 0.0249270721215 21.916438768517
8.694200000000000 0.0249250776774 -1.756242892068 0.9996858602183 -79.92549069266 0.9996858602183 -79.92549069266 0.0249261162509 21.916164737015
8.694300000000000 0.0249241198800 -1.757934834133 0.9996858836319 -79.92647416146 0.9996858836319 -79.92647416146 0.0249251586558 21.915891536762
8.694400000000000 0.0249231603550 -1.759627805796 0.9996859070868 -79.92745773156 0.9996859070868 -79.92745773156 0.0249241993334 21.915619169573
8.694500000000000 0.0249221990980 -1.761321810714 0.9996859305837 -79.92844140320 0.9996859305837 -79.92844140320 0.0249232382796 21.915347636821
8.694600000000001 0.0249212361047 -1.763016850907 0.9996859541222 -79.92942517664 0.9996859541222 -79.92942517664 0.0249222754900 21.915076941469
8.694700000000001 0.0249202713697 -1.764712929886 0.9996859777027 -79.93040905221 0.9996859777027 -79.93040905221 0.0249213109592 21.914807086026
8.694800000000001 0.0249193048907 -1.766410049221 0.9996860013251 -79.93139303003 0.9996860013251 -79.93139303003 0.0249203446850 21.914538071877
8.694900000000001 0.0249183366603 -1.768108213449 0.9996860249897 -79.93237711054 0.9996860249897 -79.93237711054 0.0249193766597 21.914269902718
8.695000000000000 0.0249173666758 -1.769807424509 0.9996860486965 -79.93336129391 0.9996860486965 -79.93336129391 0.0249184068809 21.914002579818
8.695100000000000 0.0249163949326 -1.771507685296 0.9996860724456 -79.93434558040 0.9996860724456 -79.93434558040 0.0249174353439 21.913736105616
8.695200000000000 0.0249154214278 -1.773208997445 0.9996860962370 -79.93532997018 0.9996860962370 -79.93532997018 0.0249164620459 21.913470482087
8.695300000000001 0.0249144461530 -1.774911366321 0.9996861200710 -79.93631446375 0.9996861200711 -79.93631446375 0.0249154869784 21.913205712803
8.695400000000001 0.0249134691075 -1.776614792501 0.9996861439476 -79.93729906115 0.9996861439476 -79.93729906115 0.0249145101406 21.912941798753
8.695500000000001 0.0249124902831 -1.778319280633 0.9996861678669 -79.93828376287 0.9996861678669 -79.93828376287 0.0249135315245 21.912678744198
8.695600000000001 0.0249115096796 -1.780024831757 0.9996861918290 -79.93926856891 0.9996861918290 -79.93926856891 0.0249125511298 21.912416548825
8.695700000000000 0.0249105272891 -1.781731450639 0.9996862158342 -79.94025347974 0.9996862158342 -79.94025347974 0.0249115689486 21.912155216588
8.695800000000000 0.0249095431089 -1.783439138423 0.9996862398823 -79.94123849551 0.9996862398823 -79.94123849551 0.0249105849783 21.911894749619
8.695900000000000 0.0249085571331 -1.785147899255 0.9996862639735 -79.94222361659 0.9996862639735 -79.94222361659 0.0249095992128 21.911635150644
8.696000000000000 0.0249075693575 -1.786857735918 0.9996862881080 -79.94320884321 0.9996862881080 -79.94320884321 0.0249086116481 21.911376421567
8.696100000000001 0.0249065797781 -1.788568650829 0.9996863122859 -79.94419417562 0.9996863122859 -79.94419417562 0.0249076222801 21.911118564780
8.696200000000001 0.0249055883885 -1.790280647517 0.9996863365072 -79.94517961418 0.9996863365072 -79.94517961418 0.0249066311024 21.910861583766
8.696300000000001 0.0249045951863 -1.791993728472 0.9996863607721 -79.94616515904 0.9996863607721 -79.94616515904 0.0249056381127 21.910605479269
8.696400000000001 0.0249036001651 -1.793707896764 0.9996863850805 -79.94715081057 0.9996863850805 -79.94715081057 0.0249046433046 21.910350255140
8.696500000000000 0.0249026033227 -1.795423155006 0.9996864094330 -79.94813656891 0.9996864094330 -79.94813656891 0.0249036466757 21.910095911975
8.696600000000000 0.0249016046510 -1.797139507271 0.9996864338292 -79.94912243454 0.9996864338292 -79.94912243454 0.0249026482181 21.909842454481
8.696700000000000 0.0249006041462 -1.798856955980 0.9996864582693 -79.95010840767 0.9996864582693 -79.95010840767 0.0249016479279 21.909589884585
8.696800000000001 0.0248996018060 -1.800575503654 0.9996864827538 -79.95109448845 0.9996864827538 -79.95109448845 0.0249006458028 21.909338203018
8.696900000000001 0.0248985976230 -1.802295153998 0.9996865072824 -79.95208067731 0.9996865072824 -79.95208067731 0.0248996418354 21.909087414072
8.697000000000001 0.0248975915935 -1.804015909310 0.9996865318551 -79.95306697446 0.9996865318551 -79.95306697446 0.0248986360222 21.908837519926
8.697100000000001 0.0248965837124 -1.805737773709 0.9996865564725 -79.95405338021 0.9996865564725 -79.95405338021 0.0248976283579 21.908588522378
8.697200000000000 0.0248955739742 -1.807460749633 0.9996865811344 -79.95503989489 0.9996865811344 -79.95503989489 0.0248966188370 21.908340425147
8.697300000000000 0.0248945623757 -1.809184839761 0.9996866058408 -79.95602651868 0.9996866058408 -79.95602651868 0.0248956074563 21.908093229604
8.697400000000000 0.0248935489104 -1.810910048291 0.9996866305922 -79.95701325196 0.9996866305922 -79.95701325196 0.0248945942095 21.907846938732
8.697500000000000 0.0248925335746 -1.812636377579 0.9996866553885 -79.95800009495 0.9996866553885 -79.95800009495 0.0248935790926 21.907601554752
8.697600000000001 0.0248915163635 -1.814363829867 0.9996866802295 -79.95898704793 0.9996866802295 -79.95898704793 0.0248925621011 21.907357080767
8.697700000000001 0.0248904972708 -1.816092410108 0.9996867051158 -79.95997411129 0.9996867051158 -79.95997411129 0.0248915432284 21.907113519205
8.697800000000001 0.0248894762931 -1.817822120236 0.9996867300474 -79.96096128521 0.9996867300474 -79.96096128521 0.0248905224714 21.906870872102
8.697900000000001 0.0248884534252 -1.819552963145 0.9996867550241 -79.96194857000 0.9996867550241 -79.96194857000 0.0248894998247 21.906629142576
8.698000000000000 0.0248874286611 -1.821284943313 0.9996867800465 -79.96293596602 0.9996867800465 -79.96293596602 0.0248884752823 21.906388332992
8.698100000000000 0.0248864019956 -1.823018063472 0.9996868051144 -79.96392347358 0.9996868051144 -79.96392347358 0.0248874488392 21.906148446586
8.698200000000000 0.0248853734243 -1.824752326519 0.9996868302279 -79.96491109292 0.9996868302279 -79.96491109292 0.0248864204907 21.905909485640
8.698300000000000 0.0248843429428 -1.826487735768 0.9996868553874 -79.96589882432 0.9996868553874 -79.96589882432 0.0248853902326 21.905671452078
8.698400000000001 0.0248833105462 -1.828224293293 0.9996868805925 -79.96688666806 0.9996868805925 -79.96688666806 0.0248843580602 21.905434349383
8.698500000000001 0.0248822762301 -1.829962003069 0.9996869058437 -79.96787462440 0.9996869058437 -79.96787462440 0.0248833239686 21.905198178962
8.698600000000001 0.0248812399872 -1.831700869416 0.9996869311412 -79.96886269377 0.9996869311412 -79.96886269377 0.0248822879508 21.904962944591
8.698700000000001 0.0248802018129 -1.833440894749 0.9996869564849 -79.96985087644 0.9996869564849 -79.96985087644 0.0248812500023 21.904728649118
8.698800000000000 0.0248791617026 -1.835182082058 0.9996869818748 -79.97083917269 0.9996869818748 -79.97083917269 0.0248802101183 21.904495295185
8.698900000000000 0.0248781196521 -1.836924434818 0.9996870073115 -79.97182758276 0.9996870073115 -79.97182758276 0.0248791682947 21.904262884149
8.699000000000000 0.0248770756548 -1.838667956368 0.9996870327946 -79.97281610704 0.9996870327946 -79.97281610704 0.0248781245248 21.904031420274
8.699100000000001 0.0248760297062 -1.840412650187 0.9996870583245 -79.97380474579 0.9996870583245 -79.97380474579 0.0248770788043 21.903800905192
8.699200000000001 0.0248749818001 -1.842158519596 0.9996870839012 -79.97479349937 0.9996870839012 -79.97479349937 0.0248760311269 21.903571342753
8.699300000000001 0.0248739319327 -1.843905567528 0.9996871095249 -79.97578236803 0.9996871095249 -79.97578236803 0.0248749814887 21.903342734754
8.699400000000001 0.0248728800995 -1.845653796724 0.9996871351957 -79.97677135201 0.9996871351957 -79.97677135201 0.0248739298853 21.903115083522
8.699500000000000 0.0248718262919 -1.847403212767 0.9996871609138 -79.97776045184 0.9996871609138 -79.97776045184 0.0248728763081 21.902888393296
8.699600000000000 0.0248707705075 -1.849153816945 0.9996871866791 -79.97874966764 0.9996871866791 -79.97874966764 0.0248718207547 21.902662665716
8.699700000000000 0.0248697127397 -1.850905613702 0.9996872124920 -79.97973899981 0.9996872124920 -79.97973899981 0.0248707632184 21.902437904103
8.699800000000000 0.0248686529849 -1.852658604919 0.9996872383522 -79.98072844855 0.9996872383522 -79.98072844855 0.0248697036958 21.902214110651
8.699900000000001 0.0248675912342 -1.854412796643 0.9996872642603 -79.98171801440 0.9996872642603 -79.98171801440 0.0248686421780 21.901991289365
8.700000000000001 0.0248665274879 -1.856168188944 0.9996872902162 -79.98270769734 0.9996872902162 -79.98270769734 0.0248675786650 21.901769440668