! Sonnet Data File
! From: emgraph Version : 16.52
! From Emgraph Data: 171117_Xmon_fullysym
! Data File Written: 11/17/2017 15:37:02
!< HDATE 11/17/2017 11:31:43
!< MDATE 11/17/2017 11:31:43
!< PARAMS
!< Lj = 11.0
!< Gap = 6.0
!< Pwid = 2000.0
!< Width = 10.0
!< END PARAMS
# GHZ S MA R 50.90000
8.687000000000001 0.0027270227408 42.367446385174 0.9997782229830 -80.90434508257 0.9997782229840 -80.90434508267 0.0025227097081 -15.78534529812
!< P1 F=8.687 Eeff=(6.44683727 -2.9786e-5) Z0=(51.7993601 1.19075e-4) R=0.0 C=0.0 
!< P2 F=8.687 Eeff=(6.44683727 -2.9786e-5) Z0=(51.7993601 1.19075e-4) R=0.0 C=0.0 
8.687002000000000 0.0027074873709 42.637334549232 0.9997778284874 -80.90570341612 0.9997778284874 -80.90570341612 0.0025011383596 -15.99298223860
8.687004000000000 0.0026879664804 42.911767595119 0.9997774348380 -80.90706490777 0.9997774348380 -80.90706490777 0.0024795502201 -16.20475668935
8.687006000000000 0.0026684685880 43.190821820624 0.9997770393419 -80.90842919603 0.9997770393419 -80.90842919603 0.0024579510648 -16.42066665870
8.687008000000001 0.0026489957450 43.474593722712 0.9997766420477 -80.90979626220 0.9997766420477 -80.90979626220 0.0024363423325 -16.64082579030
8.687010000000001 0.0026295493622 43.763196238336 0.9997762428408 -80.91116614136 0.9997762428408 -80.91116614136 0.0024147245814 -16.86535746553
8.687012000000001 0.0026101317391 44.056727997494 0.9997758418025 -80.91253880428 0.9997758418025 -80.91253880428 0.0023930995186 -17.09438255711
8.687014000000001 0.0025907440514 44.355310885308 0.9997754388832 -80.91391430829 0.9997754388832 -80.91391430829 0.0023714674717 -17.32803880178
8.687016000000000 0.0025713885661 44.659051783623 0.9997750341375 -80.91529263589 0.9997750341375 -80.91529263589 0.0023498300495 -17.56645784168
8.687018000000000 0.0025520674067 44.968066808012 0.9997746274848 -80.91667378910 0.9997746274848 -80.91667378910 0.0023281885449 -17.80977660122
8.687020000000000 0.0025327820027 45.282485083270 0.9997742189100 -80.91805782069 0.9997742189100 -80.91805782069 0.0023065435355 -18.05814813547
8.687022000000001 0.0025135351047 45.602417968599 0.9997738084390 -80.91944469444 0.9997738084390 -80.91944469444 0.0022848970757 -18.31171515594
8.687024000000001 0.0024943290454 45.927988161195 0.9997733960562 -80.92083440974 0.9997733960562 -80.92083440974 0.0022632506991 -18.57063144606
8.687026000000001 0.0024751657087 46.259328944749 0.9997729817809 -80.92222700156 0.9997729817809 -80.92222700156 0.0022416054624 -18.83506442354
8.687028000000000 0.0024560472127 46.596577959948 0.9997725655080 -80.92362249939 0.9997725655080 -80.92362249939 0.0022199625220 -19.10518400397
8.687030000000000 0.0024369768129 46.939850714734 0.9997721473739 -80.92502084723 0.9997721473739 -80.92502084723 0.0021983245440 -19.38115444068
8.687032000000000 0.0024179560631 47.289304778991 0.9997717272299 -80.92642212842 0.9997717272299 -80.92642212842 0.0021766919710 -19.66316868489
8.687034000000001 0.0023989881204 47.645067615753 0.9997713051624 -80.92782630793 0.9997713051624 -80.92782630793 0.0021550672697 -19.95140751099
8.687036000000001 0.0023800753998 48.007289543693 0.9997708810860 -80.92923341776 0.9997708810860 -80.92923341776 0.0021334518696 -20.24606898949
8.687038000000001 0.0023612213710 48.376100895552 0.9997704550868 -80.93064341249 0.9997704550868 -80.93064341249 0.0021118485586 -20.54734562064
8.687040000000001 0.0023424279428 48.751673101586 0.9997700270272 -80.93205637713 0.9997700270272 -80.93205637713 0.0020902581014 -20.85546148344
8.687042000000000 0.0023236985252 49.134146860337 0.9997695970144 -80.93347228371 0.9997695970144 -80.93347228371 0.0020686832124 -21.17062943888
8.687044000000000 0.0023050362521 49.523678934860 0.9997691649627 -80.93489114030 0.9997691649627 -80.93489114030 0.0020471260568 -21.49307416766
8.687046000000000 0.0022864440394 49.920431395893 0.9997687309264 -80.93631297254 0.9997687309264 -80.93631297254 0.0020255887059 -21.82303684585
8.687048000000001 0.0022679256532 50.324557649340 0.9997682948489 -80.93773775600 0.9997682948489 -80.93773775600 0.0020040740462 -22.16075294485
8.687050000000001 0.0022494838723 50.736235734993 0.9997678567195 -80.93916554628 0.9997678567195 -80.93916554628 0.0019825838901 -22.50648837443
8.687052000000001 0.0022311228849 51.155619657275 0.9997674165110 -80.94059630258 0.9997674165110 -80.94059630258 0.0019611216189 -22.86049443051
8.687054000000000 0.0022128457093 51.582889863384 0.9997669743291 -80.94203007475 0.9997669743291 -80.94203007475 0.0019396894447 -23.22305919347
8.687056000000000 0.0021946562323 52.018222697633 0.9997665300120 -80.94346686976 0.9997665300120 -80.94346686976 0.0019182902243 -23.59446404364
8.687058000000000 0.0021765586317 52.461784916511 0.9997660836374 -80.94490666959 0.9997660836374 -80.94490666959 0.0018969274504 -23.97500058999
8.687060000000001 0.0021585567605 52.913760098300 0.9997656351768 -80.94634949639 0.9997656351768 -80.94634949639 0.0018756041100 -24.36498020522
8.687062000000001 0.0021406546133 53.374333941514 0.9997651846204 -80.94779537113 0.9997651846203 -80.94779537113 0.0018543233781 -24.76472679691
8.687064000000001 0.0021228564192 53.843693768120 0.9997647319234 -80.94924430935 0.9997647319234 -80.94924430935 0.0018330886596 -25.17457459737
8.687066000000000 0.0021051668543 54.322017449445 0.9997642771447 -80.95069629667 0.9997642771447 -80.95069629667 0.0018119040277 -25.59486462764
8.687068000000000 0.0020875904529 54.809498245228 0.9997638201787 -80.95215135029 0.9997638201787 -80.95215135029 0.0017907731860 -26.02595625695
8.687070000000000 0.0020701318192 55.306326045380 0.9997633611189 -80.95360948281 0.9997633611189 -80.95360948281 0.0017697002108 -26.46822681316
8.687072000000001 0.0020527956252 55.812700959288 0.9997628999061 -80.95507072267 0.9997628999061 -80.95507072267 0.0017486890728 -26.92206927652
8.687074000000001 0.0020355873468 56.328804830242 0.9997624365171 -80.95653504338 0.9997624365171 -80.95653504338 0.0017277447674 -27.38787464482
8.687076000000001 0.0020185117734 56.854843799662 0.9997619709514 -80.95800248655 0.9997619709514 -80.95800248655 0.0017068715537 -27.86607207273
8.687078000000001 0.0020015744726 57.391006379306 0.9997615032243 -80.95947304218 0.9997615032243 -80.95947304218 0.0016860746779 -28.35708984713
8.687080000000000 0.0019847809505 57.937491389770 0.9997610332709 -80.96094672398 0.9997610332709 -80.96094672398 0.0016653592532 -28.86137813949
8.687082000000000 0.0019681368371 58.494495118317 0.9997605611246 -80.96242354374 0.9997605611246 -80.96242354374 0.0016447307459 -29.37940581086
8.687084000000000 0.0019516478935 59.062217168614 0.9997600867679 -80.96390352023 0.9997600867679 -80.96390352023 0.0016241947766 -29.91166001782
8.687086000000001 0.0019353201534 59.640855178043 0.9997596101431 -80.96538666701 0.9997596101431 -80.96538666701 0.0016037573120 -30.45864235297
8.687088000000001 0.0019191602181 60.230585583403 0.9997591313241 -80.96687295419 0.9997591313241 -80.96687295419 0.0015834253032 -31.02085855121
8.687090000000001 0.0019031739663 60.831621814653 0.9997586502216 -80.96836244298 0.9997586502216 -80.96836244299 0.0015632046822 -31.59886303838
8.687092000000000 0.0018873679751 61.444151269756 0.9997581668799 -80.96985514077 0.9997581668799 -80.96985514077 0.0015431025516 -32.19321144438
8.687094000000000 0.0018717496554 62.068337082514 0.9997576812524 -80.97135100105 0.9997576812524 -80.97135100105 0.0015231270314 -32.80445158923
8.687096000000000 0.0018563252200 62.704387932146 0.9997571933565 -80.97285010013 0.9997571933565 -80.97285010013 0.0015032850239 -33.43320243617
8.687098000000001 0.0018411021843 63.352467683416 0.9997567031550 -80.97435241556 0.9997567031550 -80.97435241556 0.0014835851118 -34.08005741058
8.687100000000001 0.0018260878807 64.012747878137 0.9997562106259 -80.97585795790 0.9997562106259 -80.97585795790 0.0014640358643 -34.74564142341
8.687102000000001 0.0018112897166 64.685397197358 0.9997557157708 -80.97736674704 0.9997557157708 -80.97736674704 0.0014446461868 -35.43060121325
8.687104000000000 0.0017967155121 65.370565886659 0.9997552186115 -80.97887877913 0.9997552186115 -80.97887877913 0.0014254257618 -36.13558897034
8.687106000000000 0.0017823729490 66.068414711576 0.9997547190890 -80.98039408920 0.9997547190890 -80.98039408920 0.0014063842051 -36.86128831293
8.687108000000000 0.0017682700409 66.779082197883 0.9997542172622 -80.98191268846 0.9997542172622 -80.98191268846 0.0013875320220 -37.60838907337
8.687110000000001 0.0017544154107 67.502685426387 0.9997537130054 -80.98343455889 0.9997537130054 -80.98343455889 0.0013688804632 -38.37757258933
8.687112000000001 0.0017408172761 68.239345305059 0.9997532064015 -80.98495972428 0.9997532064015 -80.98495972428 0.0013504409526 -39.16955769332
8.687114000000001 0.0017274842401 68.989167224399 0.9997526974005 -80.98648819805 0.9997526974005 -80.98648819805 0.0013322255113 -39.98506240715
8.687116000000001 0.0017144249275 69.752248906561 0.9997521859759 -80.98802000788 0.9997521859759 -80.98802000788 0.0013142465972 -40.82481914247
8.687118000000000 0.0017016485947 70.528641653061 0.9997516721581 -80.98955512219 0.9997516721581 -80.98955512218 0.0012965179951 -41.68953042488
8.687120000000000 0.0016891639033 71.318428101746 0.9997511558900 -80.99109360271 0.9997511558900 -80.99109360271 0.0012790529697 -42.57994847914
8.687122000000000 0.0016769803660 72.121625684886 0.9997506371876 -80.99263542171 0.9997506371877 -80.99263542171 0.0012618664918 -43.49676974093
8.687124000000001 0.0016651072395 72.938253841128 0.9997501160704 -80.99418059495 0.9997501160704 -80.99418059495 0.0012449736838 -44.44070530631
8.687126000000001 0.0016535537981 73.768323595014 0.9997495924842 -80.99572915968 0.9997495924842 -80.99572915968 0.0012283900446 -45.41246246532
8.687128000000001 0.0016423299142 74.611788614809 0.9997490663852 -80.99728108915 0.9997490663852 -80.99728108915 0.0012121324198 -46.41268537226
8.687130000000000 0.0016314449178 75.468616057377 0.9997485378066 -80.99883642866 0.9997485378066 -80.99883642866 0.0011962176274 -47.44203797495
8.687132000000000 0.0016209087222 76.338713316357 0.9997480067419 -81.00039516005 0.9997480067419 -81.00039516005 0.0011806637647 -48.50110367609
8.687134000000000 0.0016107308323 77.222003184362 0.9997474731074 -81.00195733910 0.9997474731074 -81.00195733910 0.0011654887901 -49.59046969450
8.687136000000001 0.0016009211790 78.118332613670 0.9997469370067 -81.00352294176 0.9997469370067 -81.00352294176 0.0011507122349 -50.71061737514
8.687138000000001 0.0015914895844 79.027545569590 0.9997463983435 -81.00509198643 0.9997463983435 -81.00509198643 0.0011363536630 -51.86198754533
8.687140000000001 0.0015824458272 79.949450558019 0.9997458571049 -81.00666448526 0.9997458571050 -81.00666448526 0.0011224333536 -53.04494321237
8.687142000000000 0.0015737997171 80.883809271982 0.9997453133510 -81.00824042680 0.9997453133510 -81.00824042680 0.0011089723881 -54.25974324878
8.687144000000000 0.0015655607806 81.830391451692 0.9997447669725 -81.00981986453 0.9997447669725 -81.00981986453 0.0010959916533 -55.50659454306
8.687146000000000 0.0015577387042 82.788891858487 0.9997442180121 -81.01140278548 0.9997442180121 -81.01140278548 0.0010835131553 -56.78554385253
8.687148000000001 0.0015503429344 83.758988239826 0.9997436664693 -81.01298920454 0.9997436664693 -81.01298920454 0.0010715589890 -58.09653468834
8.687150000000001 0.0015433828477 84.740324844263 0.9997431122675 -81.01457913701 0.9997431122674 -81.01457913701 0.0010601514532 -59.43937281203
8.687152000000001 0.0015368675274 85.732514594971 0.9997425554267 -81.01617260532 0.9997425554267 -81.01617260532 0.0010493130688 -60.81372373022
8.687154000000001 0.0015308059554 86.735118936047 0.9997419959827 -81.01776960551 0.9997419959827 -81.01776960551 0.0010390666093 -62.21906912346
8.687156000000000 0.0015252069732 87.747662853550 0.9997414338687 -81.01937012989 0.9997414338688 -81.01937012989 0.0010294346869 -63.65471247318
8.687158000000000 0.0015200789227 88.769673110385 0.9997408690344 -81.02097422759 0.9997408690344 -81.02097422759 0.0010204394052 -65.11982864065
8.687160000000000 0.0015154298863 89.800618683464 0.9997403015554 -81.02258191074 0.9997403015554 -81.02258191074 0.0010121028802 -66.61337261331
8.687162000000001 0.0015112677856 90.839931097147 0.9997397313646 -81.02419318227 0.9997397313646 -81.02419318227 0.0010044466292 -68.13409317885
8.687164000000001 0.0015076002180 91.886986289014 0.9997391584419 -81.02580800890 0.9997391584419 -81.02580800890 9.9749166791e-4 -69.68050590608
8.687166000000001 0.0015044340494 92.941207154313 0.9997385827994 -81.02742647500 0.9997385827994 -81.02742647500 9.9125773157e-4 -71.25104279156
8.687168000000000 0.0015017760271 94.001918029049 0.9997380044460 -81.02904855676 0.9997380044460 -81.02904855676 9.8576398290e-4 -72.84383501872
8.687170000000000 0.0014996324434 95.068443297916 0.9997374232975 -81.03067426963 0.9997374232975 -81.03067426963 9.8102814748e-4 -74.45686167769
8.687172000000000 0.0014980090574 96.140087456791 0.9997368393346 -81.03230363523 0.9997368393346 -81.03230363523 9.7706665470e-4 -76.08792972418
8.687174000000001 0.0014969110893 97.216114970474 0.9997362526250 -81.03393664701 0.9997362526250 -81.03393664701 9.7389456102e-4 -77.73465208828
8.687176000000001 0.0014963433448 98.295777940612 0.9997356631105 -81.03557330705 0.9997356631105 -81.03557330705 9.7152508558e-4 -79.39450052892
8.687178000000001 0.0014963099863 99.378369472264 0.9997350708160 -81.03721370227 0.9997350708160 -81.03721370227 9.6996967712e-4 -81.06490659141
8.687180000000000 0.0014968148358 100.46306286501 0.9997344756424 -81.03885775847 0.9997344756424 -81.03885775847 9.6923786427e-4 -82.74303108687
8.687182000000000 0.0014978609554 101.54909605659 0.9997338776279 -81.04050551227 0.9997338776279 -81.04050551227 9.6933719568e-4 -84.42607066705
8.687184000000000 0.0014994509220 102.63570274141 0.9997332767611 -81.04215700262 0.9997332767611 -81.04215700262 9.7027313515e-4 -86.11117391142
8.687186000000001 0.0015015867328 103.72207976333 0.9997326730142 -81.04381221701 0.9997326730142 -81.04381221701 9.7204896289e-4 -87.79541523136
8.687188000000001 0.0015042698102 104.80745775007 0.9997320663924 -81.04547119225 0.9997320663924 -81.04547119225 9.7466589932e-4 -89.47592838858
8.687190000000001 0.0015075009940 105.89104302366 0.9997314568597 -81.04713392221 0.9997314568598 -81.04713392221 9.7812291525e-4 -91.14984178908
8.687192000000001 0.0015112805270 106.97206391537 0.9997308444201 -81.04880042223 0.9997308444201 -81.04880042223 9.8241694771e-4 -92.81437270701
8.687194000000000 0.0015156080821 108.04973798557 0.9997302289990 -81.05047067499 0.9997302289990 -81.05047067499 9.8754270009e-4 -94.46680097976
8.687196000000000 0.0015204828465 109.12335494367 0.9997296106464 -81.05214475110 0.9997296106464 -81.05214475110 9.9349335584e-4 -96.10461139914
8.687198000000000 0.0015259034218 110.19217951802 0.9997289893263 -81.05382265799 0.9997289893263 -81.05382265799 0.0010002599852 -97.72536639848
8.687200000000001 0.0015318677103 111.25547382360 0.9997283650367 -81.05550436752 0.9997283650367 -81.05550436752 0.0010078317800 -99.32675352911
8.687202000000001 0.0015383733169 112.31256090428 0.9997277377189 -81.05718991156 0.9997277377189 -81.05718991156 0.0010161965621 -100.9066939889
8.687204000000001 0.0015454172715 113.36279265780 0.9997271074347 -81.05887932738 0.9997271074347 -81.05887932738 0.0010253409146 -102.4632962767
8.687206000000000 0.0015529961251 114.40551523256 0.9997264740559 -81.06057260297 0.9997264740559 -81.06057260297 0.0010352497028 -103.9948198145
8.687208000000000 0.0015611055949 115.44009473991 0.9997258377167 -81.06226970713 0.9997258377167 -81.06226970713 0.0010459067661 -105.4997013377
8.687210000000000 0.0015697419326 116.46601400017 0.9997251982274 -81.06397075276 0.9997251982274 -81.06397075276 0.0010572956957 -106.9767101091
8.687212000000001 0.0015789000792 117.48270213306 0.9997245556891 -81.06567571059 0.9997245556891 -81.06567571059 0.0010693986507 -108.4246784332
8.687214000000001 0.0015885745132 118.48961223984 0.9997239101418 -81.06738453500 0.9997239101418 -81.06738453500 0.0010821969214 -109.8426211554
8.687216000000001 0.0015987604512 119.48631984265 0.9997232613373 -81.06909733341 0.9997232613373 -81.06909733340 0.0010956722961 -111.2298719290
8.687218000000000 0.0016094516608 120.47235805330 0.9997226094561 -81.07081407749 0.9997226094561 -81.07081407749 0.0011098055701 -112.5858162124
8.687220000000000 0.0016206419408 121.44730990814 0.9997219544724 -81.07253476712 0.9997219544724 -81.07253476712 0.0011245773699 -113.9100344886
8.687222000000000 0.0016323250609 122.41080934345 0.9997212962953 -81.07425943139 0.9997212962953 -81.07425943139 0.0011399684666 -115.2022855677
8.687224000000001 0.0016444942117 123.36250472690 0.9997206349369 -81.07598806159 0.9997206349369 -81.07598806159 0.0011559594184 -116.4624389423
8.687226000000001 0.0016571428411 124.30211640939 0.9997199703992 -81.07772071642 0.9997199703992 -81.07772071642 0.0011725315742 -117.6905421862
8.687228000000001 0.0016702637537 125.22935491294 0.9997193026201 -81.07945737833 0.9997193026201 -81.07945737833 0.0011896657212 -118.8867061063
8.687230000000001 0.0016838496820 126.14398141400 0.9997186316468 -81.08119805794 0.9997186316468 -81.08119805794 0.0012073433039 -120.0511634361
8.687232000000000 0.0016978934757 127.04579718439 0.9997179574073 -81.08294278400 0.9997179574073 -81.08294278400 0.0012255462343 -121.1842539843
8.687234000000000 0.0017123877742 127.93463268332 0.9997172799144 -81.08469157994 0.9997172799144 -81.08469157994 0.0012442568680 -122.2863908909
8.687236000000000 0.0017273249800 128.81033402670 0.9997165991202 -81.08644444321 0.9997165991202 -81.08644444321 0.0012634576859 -123.3580420411
8.687238000000001 0.0017426976197 129.67279302182 0.9997159150485 -81.08820140165 0.9997159150485 -81.08820140165 0.0012831320595 -124.3997508352
8.687240000000001 0.0017584980940 130.52191780043 0.9997152276426 -81.08996246371 0.9997152276426 -81.08996246371 0.0013032636023 -125.4121003963
8.687242000000001 0.0017747184400 131.35762966851 0.9997145369238 -81.09172760765 0.9997145369239 -81.09172760765 0.0013238361532 -126.3956959261
8.687244000000000 0.0017913517294 132.17992431734 0.9997138428164 -81.09349691748 0.9997138428164 -81.09349691748 0.0013448353128 -127.3512358696
8.687246000000000 0.0018083897521 132.98876022356 0.9997131453862 -81.09527034646 0.9997131453862 -81.09527034646 0.0013662457549 -128.2793681710
8.687248000000000 0.0018258252660 133.78415815955 0.9997124445589 -81.09704793705 0.9997124445589 -81.09704793705 0.0013880537063 -129.1808114958
8.687250000000001 0.0018436507130 134.56614242175 0.9997117402872 -81.09882969479 0.9997117402872 -81.09882969479 0.0014102455179 -130.0562769212
8.687252000000001 0.0018618589103 135.33477589597 0.9997110326241 -81.10061566499 0.9997110326241 -81.10061566499 0.0014328086772 -130.9064989665
8.687254000000001 0.0018804423469 136.09011376929 0.9997103214984 -81.10240584127 0.9997103214984 -81.10240584127 0.0014557304679 -131.7321940155
8.687256000000001 0.0018993935743 136.83223150549 0.9997096069098 -81.10420022194 0.9997096069097 -81.10420022194 0.0014789988051 -132.5340787852
8.687258000000000 0.0019187054157 137.56122579187 0.9997088888267 -81.10599882048 0.9997088888267 -81.10599882048 0.0015026023016 -133.3128739396
8.687260000000000 0.0019383713374 138.27723065783 0.9997081672904 -81.10780170547 0.9997081672904 -81.10780170547 0.0015265308801 -134.0693132743
8.687262000000000 0.0019583837389 138.98034001414 0.9997074421977 -81.10960882397 0.9997074421977 -81.10960882397 0.0015507732105 -134.8040748301
8.687264000000001 0.0019787360949 139.67070328451 0.9997067136024 -81.11142022402 0.9997067136024 -81.11142022402 0.0015753199128 -135.5178623105
8.687266000000001 0.0019994218865 140.34847012353 0.9997059814693 -81.11323593487 0.9997059814693 -81.11323593487 0.0016001617637 -136.2113602332
8.687268000000001 0.0020204341049 141.01377466719 0.9997052456819 -81.11505592532 0.9997052456819 -81.11505592532 0.0016252890807 -136.8852186637
8.687270000000000 0.0020417670904 141.66680846592 0.9997045063321 -81.11688028507 0.9997045063321 -81.11688028507 0.0016506944439 -137.5401098290
8.687272000000000 0.0020634134810 142.30770530302 0.9997037633946 -81.11870893536 0.9997037633946 -81.11870893536 0.0016763683668 -138.1766332348
8.687274000000000 0.0020853684469 142.93667668241 0.9997030167611 -81.12054199836 0.9997030167611 -81.12054199836 0.0017023045947 -138.7954427614
8.687276000000001 0.0021076247312 143.55386894008 0.9997022665251 -81.12237938949 0.9997022665251 -81.12237938949 0.0017284943708 -139.3970996963
8.687278000000001 0.0021301773247 144.15948853791 0.9997015126036 -81.12422119125 0.9997015126036 -81.12422119125 0.0017549316239 -139.9822073712
8.687280000000001 0.0021530200312 144.75371033872 0.9997007550034 -81.12606737994 0.9997007550034 -81.12606737994 0.0017816091203 -140.5513147281
8.687282000000000 0.0021761478475 145.33673957197 0.9996999936936 -81.12791801579 0.9996999936936 -81.12791801579 0.0018085211713 -141.1049792963
8.687284000000000 0.0021995550004 145.90875664495 0.9996992285823 -81.12977308075 0.9996992285823 -81.12977308075 0.0018356612056 -141.6437190818
8.687286000000000 0.0022232356612 146.46994730560 0.9996984597812 -81.13163255344 0.9996984597812 -81.13163255344 0.0018630229894 -142.1680291810
8.687288000000001 0.0022471862432 147.02054086745 0.9996976871536 -81.13349656482 0.9996976871536 -81.13349656482 0.0018906027458 -142.6784349533
8.687290000000001 0.0022714002788 147.56070141821 0.9996969107964 -81.13536501915 0.9996969107964 -81.13536501915 0.0019183936562 -143.1753772565
8.687292000000001 0.0022958738532 148.09064281805 0.9996961305611 -81.13723799762 0.9996961305611 -81.13723799762 0.0019463917154 -143.6593336383
8.687294000000001 0.0023206011358 148.61053877276 0.9996953465112 -81.13911543302 0.9996953465112 -81.13911543302 0.0019745909959 -144.1307222675
8.687296000000000 0.0023455793153 149.12062154508 0.9996945585749 -81.14099747259 0.9996945585749 -81.14099747260 0.0020029890300 -144.5900009733
8.687298000000000 0.0023708026343 149.62105838363 0.9996937667890 -81.14288403287 0.9996937667890 -81.14288403287 0.0020315800694 -145.0375536291
8.687300000000000 0.0023962673930 150.11205363920 0.9996929710910 -81.14477517242 0.9996929710910 -81.14477517242 0.0020603607161 -145.4737853196
8.687302000000001 0.0024219693259 150.59379666753 0.9996921714630 -81.14667089907 0.9996921714630 -81.14667089907 0.0020893270063 -145.8990734550
8.687304000000001 0.0024479043740 151.06647715399 0.9996913679012 -81.14857122736 0.9996913679012 -81.14857122736 0.0021184752728 -146.3137825363
8.687306000000001 0.0024740683811 151.53027780602 0.9996905603724 -81.15047615424 0.9996905603724 -81.15047615424 0.0021478017345 -146.7182605890
8.687308000000000 0.0025004577089 151.98538580919 0.9996897488129 -81.15238570458 0.9996897488129 -81.15238570458 0.0021773032045 -147.1128490253
8.687310000000000 0.0025270693109 152.43199807193 0.9996889333028 -81.15429994366 0.9996889333028 -81.15429994366 0.0022069773600 -147.4978805179
8.687312000000000 0.0025538988627 152.87027850090 0.9996881137285 -81.15621882667 0.9996881137285 -81.15621882667 0.0022368202061 -147.8736586702
8.687314000000001 0.0025809439039 153.30042161176 0.9996872900760 -81.15814243988 0.9996872900760 -81.15814243988 0.0022668300149 -148.2404976961
8.687316000000001 0.0026081997497 153.72258126975 0.9996864623846 -81.16007070408 0.9996864623846 -81.16007070408 0.0022970025821 -148.5986688240
8.687318000000001 0.0026356646065 154.13694951352 0.9996856305128 -81.16200373156 0.9996856305128 -81.16200373155 0.0023273368162 -148.9484709314
8.687320000000000 0.0026633340149 154.54367914488 0.9996847946315 -81.16394145039 0.9996847946315 -81.16394145039 0.0023578289283 -149.2901528833
8.687322000000000 0.0026912061556 154.94295007443 0.9996839545429 -81.16588395320 0.9996839545429 -81.16588395320 0.0023884777392 -149.6239899156
8.687324000000000 0.0027192778121 155.33492185755 0.9996831102841 -81.16783123632 0.9996831102841 -81.16783123632 0.0024192807313 -149.9502257320
8.687326000000001 0.0027475459108 155.71974977364 0.9996822618037 -81.16978329619 0.9996822618037 -81.16978329619 0.0024502354570 -150.2690970183
8.687328000000001 0.0027760081556 156.09759805267 0.9996814091376 -81.17174018027 0.9996814091376 -81.17174018027 0.0024813404289 -150.5808375183
8.687330000000001 0.0028046615206 156.46861430583 0.9996805522506 -81.17370187624 0.9996805522506 -81.17370187624 0.0025125932606 -150.8856647290
8.687332000000001 0.0028335041697 156.83295678263 0.9996796910528 -81.17566844573 0.9996796910528 -81.17566844573 0.0025439928389 -151.1837999405
8.687334000000000 0.0028625325412 157.19076016897 0.9996788256095 -81.17763983186 0.9996788256095 -81.17763983186 0.0025755362659 -151.4754361717
8.687336000000000 0.0028917457035 157.54218523655 0.9996779558109 -81.17961614561 0.9996779558109 -81.17961614561 0.0026072233996 -151.7607861664
8.687338000000000 0.0029211405222 157.88736305122 0.9996770816798 -81.18159734674 0.9996770816798 -81.18159734674 0.0026390517586 -152.0400314165
8.687340000000001 0.0029507151294 158.22643672482 0.9996762032349 -81.18358347590 0.9996762032349 -81.18358347590 0.0026710202553 -152.3133576628
8.687342000000001 0.0029804668371 158.55953274269 0.9996753203776 -81.18557450901 0.9996753203776 -81.18557450901 0.0027031267722 -152.5809378900
8.687344000000001 0.0030103947763 158.88679706759 0.9996744330898 -81.18757054243 0.9996744330899 -81.18757054243 0.0027353712674 -152.8429521891
8.687346000000000 0.0030404957078 159.20834474514 0.9996735413845 -81.18957150951 0.9996735413845 -81.18957150951 0.0027677510937 -153.0995534903
8.687348000000000 0.0030707687993 159.52431320938 0.9996726452036 -81.19157749788 0.9996726452036 -81.19157749788 0.0028002661829 -153.3509091083
8.687350000000000 0.0031012113176 159.83481546602 0.9996717445167 -81.19358846476 0.9996717445167 -81.19358846476 0.0028329143846 -153.5971645022
8.687352000000001 0.0031318228492 160.13998659943 0.9996708393148 -81.19560451796 0.9996708393148 -81.19560451796 0.0028656961009 -153.8384766126
8.687354000000001 0.0031626003870 160.43993152989 0.9996699296442 -81.19762559088 0.9996699296442 -81.19762559088 0.0028986089206 -154.0749762760
8.687356000000001 0.0031935424174 160.73476338743 0.9996690153322 -81.19965170506 0.9996690153322 -81.19965170506 0.0029316518709 -154.3068036220
8.687358000000000 0.0032246484314 161.02460782361 0.9996680964992 -81.20168295346 0.9996680964992 -81.20168295346 0.0029648253090 -154.5340957659
8.687360000000000 0.0032559162360 161.30956517512 0.9996671730223 -81.20371930667 0.9996671730223 -81.20371930667 0.0029981275316 -154.7569766658
8.687362000000000 0.0032873441328 161.58974034507 0.9996662448998 -81.20576076835 0.9996662448998 -81.20576076835 0.0030315574655 -154.9755672926
8.687364000000001 0.0033189313093 161.86524303246 0.9996653121069 -81.20780739575 0.9996653121069 -81.20780739575 0.0030651149667 -155.1899900720
8.687366000000001 0.0033506756600 162.13616801152 0.9996643746278 -81.20985915881 0.9996643746278 -81.20985915881 0.0030987984787 -155.4003546040
8.687368000000001 0.0033825770132 162.40262376220 0.9996634323938 -81.21191614831 0.9996634323938 -81.21191614831 0.0031326084869 -155.6067790275
8.687370000000001 0.0034146331304 162.66469866876 0.9996624854106 -81.21397832004 0.9996624854106 -81.21397832004 0.0031665432807 -155.8093636345
8.687372000000000 0.0034468433159 162.92249186052 0.9996615336706 -81.21604572638 0.9996615336706 -81.21604572638 0.0032006027958 -156.0082143510
8.687374000000000 0.0034792058163 163.17609066072 0.9996605771680 -81.21811834857 0.9996605771680 -81.21811834857 0.0032347858114 -156.2034272108
8.687376000000000 0.0035117209288 163.42559404459 0.9996596157438 -81.22019629249 0.9996596157438 -81.22019629249 0.0032690931880 -156.3951082747
8.687378000000001 0.0035443862107 163.67108149955 0.9996586495559 -81.22227949439 0.9996586495559 -81.22227949439 0.0033035230592 -156.5833403890
8.687380000000001 0.0035772008354 163.91263746182 0.9996576784287 -81.22436798230 0.9996576784287 -81.22436798230 0.0033380750363 -156.7682169495
8.687382000000001 0.0036101647087 164.15035342374 0.9996567024062 -81.22646183458 0.9996567024062 -81.22646183458 0.0033727496675 -156.9498285800
8.687384000000000 0.0036432764458 164.38430666654 0.9996557214417 -81.22856104206 0.9996557214417 -81.22856104206 0.0034075460325 -157.1282574163
8.687386000000000 0.0036765346075 164.61457202555 0.9996547354854 -81.23066558995 0.9996547354854 -81.23066558995 0.0034424631406 -157.3035826459
8.687388000000000 0.0037099390405 164.84123251949 0.9996537445337 -81.23277554422 0.9996537445337 -81.23277554422 0.0034775013996 -157.4758862638
8.687390000000001 0.0037434887279 165.06436161801 0.9996527485324 -81.23489091231 0.9996527485324 -81.23489091231 0.0035126602431 -157.6452440051
8.687392000000001 0.0037771821779 165.28402881591 0.9996517475047 -81.23701167176 0.9996517475047 -81.23701167176 0.0035479386409 -157.8117258844
8.687394000000001 0.0038110197841 165.50031354574 0.9996507414005 -81.23913791520 0.9996507414005 -81.23913791520 0.0035833375126 -157.9754089815
8.687396000000000 0.0038450006356 165.71328362297 0.9996497301496 -81.24126965027 0.9996497301496 -81.24126965027 0.0036188563583 -158.1363621951
8.687398000000000 0.0038791236752 165.92300456941 0.9996487137104 -81.24340687436 0.9996487137104 -81.24340687436 0.0036544945327 -158.2946511791
8.687400000000000 0.0039133884267 166.12954553849 0.9996476921394 -81.24554962210 0.9996476921394 -81.24554962210 0.0036902520640 -158.4503405624
8.687402000000001 0.0039477936774 166.33296780825 0.9996466654136 -81.24769787809 0.9996466654136 -81.24769787809 0.0037261281323 -158.6034909069