! Sonnet Data File
! From: emgraph Version : 16.52
! From Project: 171117_Xmon_fullysym
! Data is De-embedded 
! Data File Written: 11/26/2017 17:14:23
!< HDATE 11/22/2017 16:48:52
!< MDATE 11/23/2017 10:16:42
!< PARAMS
!< Lj = 11.0
!< Gap = 1.0
!< Pwid = 2000.0
!< Airgap = 6.0
!< Width = 10.0
!< Lj1 = 10.45
!< END PARAMS
# GHZ S MA R 50.90000
8.680000000000000 0.0250793395252 -1.509384667048 0.9996820676069 -79.78478096326 0.9996820676054 -79.78478096314 0.0250803514922 21.950488441869
!< P1 F=8.68 Eeff=(6.44843488 -2.9797e-5) Z0=(50.9086135 1.17022e-4) R=0.0 C=0.0 
!< P2 F=8.68 Eeff=(6.44843488 -2.9797e-5) Z0=(50.9086135 1.17022e-4) R=0.0 C=0.0 
8.680100000000001 0.0250786082691 -1.510944621195 0.9996820855384 -79.78575116772 0.9996820855384 -79.78575116772 0.0250796203788 21.950109140273
8.680200000000001 0.0250778757808 -1.512505288599 0.9996821034994 -79.78672144437 0.9996821034994 -79.78672144437 0.0250788880350 21.949730418431
8.680300000000001 0.0250771420539 -1.514066678549 0.9996821214906 -79.78769179349 0.9996821214906 -79.78769179349 0.0250781544530 21.949352278712
8.680400000000001 0.0250764070855 -1.515628793675 0.9996821395123 -79.78866221527 0.9996821395123 -79.78866221527 0.0250774196298 21.948974721863
8.680500000000000 0.0250756708721 -1.517191635642 0.9996821575644 -79.78963270991 0.9996821575644 -79.78963270991 0.0250766835621 21.948597749908
8.680600000000000 0.0250749334110 -1.518755205932 0.9996821756470 -79.79060327757 0.9996821756470 -79.79060327757 0.0250759462469 21.948221364514
8.680700000000000 0.0250741947003 -1.520319506399 0.9996821937603 -79.79157391835 0.9996821937603 -79.79157391835 0.0250752076824 21.947845566046
8.680800000000001 0.0250734547365 -1.521884538549 0.9996822119041 -79.79254463248 0.9996822119041 -79.79254463248 0.0250744678651 21.947470356851
8.680900000000001 0.0250727135168 -1.523450304260 0.9996822300787 -79.79351542010 0.9996822300787 -79.79351542010 0.0250737267924 21.947095738014
8.681000000000001 0.0250719710393 -1.525016804725 0.9996822482840 -79.79448628133 0.9996822482840 -79.79448628133 0.0250729844622 21.946721710709
8.681100000000001 0.0250712273011 -1.526584041959 0.9996822665201 -79.79545721635 0.9996822665201 -79.79545721635 0.0250722408716 21.946348276130
8.681200000000000 0.0250704822973 -1.528152018771 0.9996822847872 -79.79642822544 0.9996822847872 -79.79642822544 0.0250714960157 21.945975436825
8.681300000000000 0.0250697360272 -1.529720735557 0.9996823030852 -79.79739930865 0.9996823030852 -79.79739930865 0.0250707498940 21.945603193222
8.681400000000000 0.0250689884871 -1.531290194991 0.9996823214144 -79.79837046618 0.9996823214144 -79.79837046618 0.0250700025025 21.945231546910
8.681500000000000 0.0250682396728 -1.532860398964 0.9996823397746 -79.79934169829 0.9996823397746 -79.79934169829 0.0250692538372 21.944860500304
8.681600000000001 0.0250674895845 -1.534431347804 0.9996823581659 -79.80031300497 0.9996823581659 -79.80031300497 0.0250685038983 21.944490053392
8.681700000000001 0.0250667382163 -1.536003045257 0.9996823765886 -79.80128438656 0.9996823765886 -79.80128438656 0.0250677526798 21.944120208653
8.681800000000001 0.0250659855681 -1.537575491243 0.9996823950426 -79.80225584308 0.9996823950426 -79.80225584308 0.0250670001816 21.943750966577
8.681900000000001 0.0250652316338 -1.539148689187 0.9996824135279 -79.80322737487 0.9996824135279 -79.80322737487 0.0250662463977 21.943382330205
8.682000000000000 0.0250644764121 -1.540722640700 0.9996824320448 -79.80419898202 0.9996824320448 -79.80419898202 0.0250654913267 21.943014299645
8.682100000000000 0.0250637199006 -1.542297346090 0.9996824505930 -79.80517066466 0.9996824505930 -79.80517066466 0.0250647349663 21.942646877192
8.682200000000000 0.0250629620958 -1.543872808519 0.9996824691729 -79.80614242301 0.9996824691729 -79.80614242301 0.0250639773130 21.942280063614
8.682300000000000 0.0250622029947 -1.545449029571 0.9996824877844 -79.80711425724 0.9996824877844 -79.80711425724 0.0250632183637 21.941913860717
8.682400000000001 0.0250614425944 -1.547026010930 0.9996825064277 -79.80808616752 0.9996825064277 -79.80808616752 0.0250624581156 21.941548270082
8.682500000000001 0.0250606808915 -1.548603754719 0.9996825251028 -79.80905815405 0.9996825251028 -79.80905815405 0.0250616965651 21.941183293274
8.682600000000001 0.0250599178837 -1.550182262252 0.9996825438096 -79.81003021696 0.9996825438096 -79.81003021696 0.0250609337103 21.940818931665
8.682700000000001 0.0250591535679 -1.551761535772 0.9996825625485 -79.81100235645 0.9996825625485 -79.81100235645 0.0250601695477 21.940455186424
8.682800000000000 0.0250583879399 -1.553341577585 0.9996825813194 -79.81197457275 0.9996825813194 -79.81197457275 0.0250594040733 21.940092059975
8.682900000000000 0.0250576209998 -1.554922387800 0.9996826001223 -79.81294686586 0.9996826001223 -79.81294686586 0.0250586372872 21.939729552334
8.683000000000000 0.0250568527407 -1.556503970734 0.9996826189575 -79.81391923619 0.9996826189575 -79.81391923619 0.0250578691824 21.939367666531
8.683100000000001 0.0250560831613 -1.558086326719 0.9996826378248 -79.81489168380 0.9996826378248 -79.81489168380 0.0250570997577 21.939006403760
8.683200000000001 0.0250553122595 -1.559669457652 0.9996826567244 -79.81586420885 0.9996826567244 -79.81586420885 0.0250563290109 21.938645764855
8.683300000000001 0.0250545400302 -1.561253366351 0.9996826756564 -79.81683681160 0.9996826756564 -79.81683681160 0.0250555569370 21.938285752209
8.683400000000001 0.0250537664712 -1.562838054231 0.9996826946208 -79.81780949220 0.9996826946208 -79.81780949220 0.0250547835337 21.937926367109
8.683500000000000 0.0250529915797 -1.564423523085 0.9996827136178 -79.81878225081 0.9996827136178 -79.81878225081 0.0250540087984 21.937567610860
8.683600000000000 0.0250522153548 -1.566009773472 0.9996827326472 -79.81975508750 0.9996827326472 -79.81975508750 0.0250532327299 21.937209484367
8.683700000000000 0.0250514377880 -1.567596810464 0.9996827517094 -79.82072800274 0.9996827517094 -79.82072800274 0.0250524553201 21.936851991173
8.683800000000000 0.0250506588812 -1.569184633244 0.9996827708043 -79.82170099644 0.9996827708043 -79.82170099644 0.0250516765704 21.936495130776
8.683900000000001 0.0250498786285 -1.570773244825 0.9996827899319 -79.82267406893 0.9996827899319 -79.82267406893 0.0250508964755 21.936138906258
8.684000000000001 0.0250490970295 -1.572362646237 0.9996828090924 -79.82364722025 0.9996828090924 -79.82364722025 0.0250501150344 21.935783317659
8.684100000000001 0.0250483140772 -1.573952841568 0.9996828282859 -79.82462045081 0.9996828282860 -79.82462045081 0.0250493322404 21.935428368101
8.684200000000001 0.0250475297723 -1.575543829960 0.9996828475123 -79.82559376057 0.9996828475123 -79.82559376057 0.0250485480943 21.935074058057
8.684300000000000 0.0250467441083 -1.577135615875 0.9996828667719 -79.82656714990 0.9996828667719 -79.82656714990 0.0250477625894 21.934720390102
8.684400000000000 0.0250459570848 -1.578728199533 0.9996828860647 -79.82754061884 0.9996828860647 -79.82754061884 0.0250469757253 21.934367364761
8.684500000000000 0.0250451686964 -1.580321583890 0.9996829053906 -79.82851416769 0.9996829053906 -79.82851416769 0.0250461874968 21.934014984815
8.684600000000000 0.0250443789412 -1.581915770527 0.9996829247498 -79.82948779657 0.9996829247498 -79.82948779657 0.0250453979018 21.933663251029
8.684700000000001 0.0250435878161 -1.583510761273 0.9996829441425 -79.83046150567 0.9996829441425 -79.83046150567 0.0250446069374 21.933312165071
8.684800000000001 0.0250427953167 -1.585106558954 0.9996829635687 -79.83143529525 0.9996829635687 -79.83143529525 0.0250438145990 21.932961728918
8.684900000000001 0.0250420014413 -1.586703164437 0.9996829830283 -79.83240916539 0.9996829830283 -79.83240916539 0.0250430208849 21.932611943851
8.685000000000000 0.0250412061856 -1.588300580506 0.9996830025216 -79.83338311637 0.9996830025216 -79.83338311637 0.0250422257909 21.932262811749
8.685100000000000 0.0250404095467 -1.589898808728 0.9996830220485 -79.83435714834 0.9996830220485 -79.83435714834 0.0250414293142 21.931914334256
8.685200000000000 0.0250396115209 -1.591497851413 0.9996830416092 -79.83533126153 0.9996830416092 -79.83533126153 0.0250406314510 21.931566513232
8.685300000000000 0.0250388121074 -1.593097709668 0.9996830612038 -79.83630545598 0.9996830612038 -79.83630545598 0.0250398322004 21.931219348834
8.685400000000001 0.0250380112984 -1.594698387667 0.9996830808323 -79.83727973215 0.9996830808323 -79.83727973215 0.0250390315546 21.930872845155
8.685500000000001 0.0250372090938 -1.596299885829 0.9996831004948 -79.83825409005 0.9996831004948 -79.83825409005 0.0250382295137 21.930527002160
8.685600000000001 0.0250364054902 -1.597902205607 0.9996831201912 -79.83922852988 0.9996831201912 -79.83922852988 0.0250374260742 21.930181822125
8.685700000000001 0.0250356004838 -1.599505350245 0.9996831399219 -79.84020305186 0.9996831399219 -79.84020305186 0.0250366212323 21.929837306303
8.685800000000000 0.0250347940712 -1.601109321665 0.9996831596868 -79.84117765620 0.9996831596868 -79.84117765620 0.0250358149845 21.929493456456
8.685900000000000 0.0250339862481 -1.602714121977 0.9996831794860 -79.84215234313 0.9996831794860 -79.84215234313 0.0250350073267 21.929150275001
8.686000000000000 0.0250331770131 -1.604319752624 0.9996831993196 -79.84312711276 0.9996831993196 -79.84312711276 0.0250341982573 21.928807762634
8.686100000000000 0.0250323663615 -1.605926216249 0.9996832191876 -79.84410196535 0.9996832191876 -79.84410196535 0.0250333877717 21.928465921706
8.686200000000001 0.0250315542901 -1.607533514919 0.9996832390902 -79.84507690109 0.9996832390902 -79.84507690109 0.0250325758667 21.928124753655
8.686300000000001 0.0250307407952 -1.609141650913 0.9996832590274 -79.84605192021 0.9996832590274 -79.84605192021 0.0250317625386 21.927784260563
8.686400000000001 0.0250299258758 -1.610750624977 0.9996832789993 -79.84702702276 0.9996832789993 -79.84702702276 0.0250309477864 21.927444442964
8.686500000000001 0.0250291095237 -1.612360441543 0.9996832990059 -79.84800220921 0.9996832990059 -79.84800220921 0.0250301316020 21.927105304989
8.686600000000000 0.0250282917406 -1.613971100679 0.9996833190474 -79.84897747949 0.9996833190474 -79.84897747949 0.0250293139869 21.926766845533
8.686700000000000 0.0250274725206 -1.615582605238 0.9996833391238 -79.84995283392 0.9996833391238 -79.84995283392 0.0250284949353 21.926429067856
8.686800000000000 0.0250266518594 -1.617194957780 0.9996833592352 -79.85092827276 0.9996833592352 -79.85092827276 0.0250276744430 21.926091974288
8.686900000000001 0.0250258297558 -1.618808160038 0.9996833793818 -79.85190379610 0.9996833793818 -79.85190379610 0.0250268525085 21.925755564728
8.687000000000001 0.0250250062056 -1.620422213648 0.9996833995635 -79.85287940416 0.9996833995635 -79.85287940416 0.0250260291280 21.925419842109
8.687100000000001 0.0250241812038 -1.622037122154 0.9996834197805 -79.85385509725 0.9996834197805 -79.85385509725 0.0250252042962 21.925084808311
8.687200000000001 0.0250233547485 -1.623652886329 0.9996834400327 -79.85483087548 0.9996834400327 -79.85483087548 0.0250243780114 21.924750464999
8.687300000000000 0.0250225268361 -1.625269508888 0.9996834603204 -79.85580673905 0.9996834603204 -79.85580673905 0.0250235502698 21.924416813439
8.687400000000000 0.0250216974622 -1.626886992435 0.9996834806436 -79.85678268824 0.9996834806436 -79.85678268824 0.0250227210672 21.924083855973
8.687500000000000 0.0250208666248 -1.628505337835 0.9996835010023 -79.85775872315 0.9996835010023 -79.85775872315 0.0250218904015 21.923751594051
8.687600000000000 0.0250200343193 -1.630124548915 0.9996835213968 -79.85873484407 0.9996835213968 -79.85873484407 0.0250210582680 21.923420029083
8.687700000000001 0.0250192005417 -1.631744627107 0.9996835418270 -79.85971105122 0.9996835418270 -79.85971105122 0.0250202246628 21.923089163968
8.687800000000001 0.0250183652891 -1.633365574476 0.9996835622929 -79.86068734477 0.9996835622929 -79.86068734477 0.0250193895832 21.922758999932
8.687900000000001 0.0250175285583 -1.634987393606 0.9996835827949 -79.86166372491 0.9996835827949 -79.86166372491 0.0250185530257 21.922429538260
8.688000000000001 0.0250166903460 -1.636610085946 0.9996836033328 -79.86264019184 0.9996836033328 -79.86264019184 0.0250177149871 21.922100781057
8.688100000000000 0.0250158506468 -1.638233654914 0.9996836239068 -79.86361674588 0.9996836239068 -79.86361674588 0.0250168754621 21.921772730946
8.688200000000000 0.0250150094582 -1.639858102127 0.9996836445169 -79.86459338717 0.9996836445169 -79.86459338717 0.0250160344481 21.921445389105
8.688300000000000 0.0250141667761 -1.641483430320 0.9996836651633 -79.86557011596 0.9996836651633 -79.86557011596 0.0250151919409 21.921118757588
8.688400000000000 0.0250133225988 -1.643109640444 0.9996836858460 -79.86654693234 0.9996836858460 -79.86654693234 0.0250143479390 21.920792837517
8.688500000000001 0.0250124769208 -1.644736735862 0.9996837065651 -79.86752383663 0.9996837065651 -79.86752383663 0.0250135024369 21.920467631403
8.688600000000001 0.0250116297391 -1.646364718185 0.9996837273206 -79.86850082902 0.9996837273206 -79.86850082902 0.0250126554315 21.920143141163
8.688700000000001 0.0250107810483 -1.647993591169 0.9996837481128 -79.86947790983 0.9996837481128 -79.86947790983 0.0250118069174 21.919819368951
8.688800000000001 0.0250099308479 -1.649623355181 0.9996837689417 -79.87045507908 0.9996837689417 -79.87045507908 0.0250109568941 21.919496315449
8.688900000000000 0.0250090791312 -1.651254014120 0.9996837898073 -79.87143233716 0.9996837898073 -79.87143233716 0.0250101053550 21.919173983896
8.689000000000000 0.0250082258973 -1.652885569046 0.9996838107098 -79.87240968414 0.9996838107098 -79.87240968414 0.0250092522990 21.918852374653
8.689100000000000 0.0250073711397 -1.654518023168 0.9996838316492 -79.87338712039 0.9996838316492 -79.87338712039 0.0250083977199 21.918531491333
8.689200000000001 0.0250065148569 -1.656151378159 0.9996838526255 -79.87436464600 0.9996838526255 -79.87436464600 0.0250075416158 21.918211334584
8.689300000000001 0.0250056570443 -1.657785636376 0.9996838736390 -79.87534226124 0.9996838736390 -79.87534226124 0.0250066839825 21.917891906751
8.689400000000001 0.0250047976972 -1.659420801100 0.9996838946897 -79.87631996640 0.9996838946897 -79.87631996640 0.0250058248151 21.917573209928
8.689500000000001 0.0250039368138 -1.661056873396 0.9996839157776 -79.87729776157 0.9996839157776 -79.87729776157 0.0250049641118 21.917255245456
8.689600000000000 0.0250030743883 -1.662693856488 0.9996839369028 -79.87827564709 0.9996839369028 -79.87827564709 0.0250041018669 21.916938016316
8.689700000000000 0.0250022104195 -1.664331752063 0.9996839580657 -79.87925362305 0.9996839580657 -79.87925362305 0.0250032380791 21.916621522516
8.689800000000000 0.0250013449008 -1.665970563344 0.9996839792660 -79.88023168982 0.9996839792660 -79.88023168982 0.0250023727419 21.916305767931
8.689900000000000 0.0250004778298 -1.667610292093 0.9996840005039 -79.88120984754 0.9996840005039 -79.88120984754 0.0250015058528 21.915990753719
8.690000000000001 0.0249996092027 -1.669250940691 0.9996840217795 -79.88218809645 0.9996840217795 -79.88218809645 0.0250006374080 21.915676481840
8.690100000000001 0.0249987390150 -1.670892511867 0.9996840430929 -79.88316643681 0.9996840430929 -79.88316643681 0.0249997674031 21.915362954603
8.690200000000001 0.0249978672625 -1.672535008434 0.9996840644443 -79.88414486886 0.9996840644443 -79.88414486886 0.0249988958339 21.915050173759
8.690300000000001 0.0249969939423 -1.674178431880 0.9996840858335 -79.88512339278 0.9996840858335 -79.88512339278 0.0249980226973 21.914738141446
8.690400000000000 0.0249961190503 -1.675822785171 0.9996841072609 -79.88610200880 0.9996841072609 -79.88610200880 0.0249971479894 21.914426859221
8.690500000000000 0.0249952425838 -1.677468069972 0.9996841287265 -79.88708071709 0.9996841287265 -79.88708071709 0.0249962717075 21.914116328629
8.690600000000000 0.0249943645369 -1.679114289548 0.9996841502302 -79.88805951799 0.9996841502302 -79.88805951799 0.0249953938456 21.913806552828
8.690700000000001 0.0249934849059 -1.680761446429 0.9996841717723 -79.88903841172 0.9996841717723 -79.88903841172 0.0249945144001 21.913497533547
8.690800000000001 0.0249926036862 -1.682409543871 0.9996841933530 -79.89001739856 0.9996841933530 -79.89001739856 0.0249936333663 21.913189272747
8.690900000000001 0.0249917208774 -1.684058581490 0.9996842149721 -79.89099647852 0.9996842149721 -79.89099647852 0.0249927507439 21.912881771590
8.691000000000001 0.0249908364727 -1.685708564033 0.9996842366298 -79.89197565201 0.9996842366298 -79.89197565201 0.0249918665260 21.912575032694
8.691100000000000 0.0249899504679 -1.687359493925 0.9996842583263 -79.89295491927 0.9996842583263 -79.89295491927 0.0249909807085 21.912269058501
8.691200000000000 0.0249890628601 -1.689011372885 0.9996842800616 -79.89393428048 0.9996842800616 -79.89393428048 0.0249900932884 21.911963850626
8.691300000000000 0.0249881736445 -1.690664203954 0.9996843018357 -79.89491373591 0.9996843018357 -79.89491373591 0.0249892042611 21.911659411298
8.691400000000000 0.0249872828172 -1.692317989438 0.9996843236488 -79.89589328580 0.9996843236488 -79.89589328580 0.0249883136225 21.911355742838
8.691500000000001 0.0249863903759 -1.693972731476 0.9996843455011 -79.89687293029 0.9996843455011 -79.89687293029 0.0249874213703 21.911052845883
8.691600000000001 0.0249854963127 -1.695628434048 0.9996843673925 -79.89785266983 0.9996843673925 -79.89785266983 0.0249865274966 21.910750724981
8.691700000000001 0.0249846006271 -1.697285097878 0.9996843893231 -79.89883250446 0.9996843893231 -79.89883250446 0.0249856320012 21.910449380191
8.691800000000001 0.0249837033140 -1.698942726433 0.9996844112932 -79.89981243448 0.9996844112932 -79.89981243448 0.0249847348786 21.910148813989
8.691900000000000 0.0249828043685 -1.700601322374 0.9996844333027 -79.90079246017 0.9996844333027 -79.90079246017 0.0249838361241 21.909849029113
8.692000000000000 0.0249819037870 -1.702260887956 0.9996844553517 -79.90177258175 0.9996844553517 -79.90177258175 0.0249829357341 21.909550027396
8.692100000000000 0.0249810015662 -1.703921425683 0.9996844774405 -79.90275279942 0.9996844774405 -79.90275279942 0.0249820337052 21.909251810313
8.692200000000000 0.0249800977011 -1.705582938387 0.9996844995690 -79.90373311347 0.9996844995690 -79.90373311347 0.0249811300326 21.908954380521
8.692300000000001 0.0249791921860 -1.707245429514 0.9996845217373 -79.90471352422 0.9996845217373 -79.90471352422 0.0249802247104 21.908657740870
8.692400000000001 0.0249782850201 -1.708908899953 0.9996845439457 -79.90569403174 0.9996845439457 -79.90569403174 0.0249793177379 21.908361891754
8.692500000000001 0.0249773761969 -1.710573353306 0.9996845661940 -79.90667463640 0.9996845661940 -79.90667463640 0.0249784091085 21.908066836861
8.692600000000001 0.0249764657127 -1.712238792097 0.9996845884824 -79.90765533842 0.9996845884824 -79.90765533842 0.0249774988186 21.907772577746
8.692700000000000 0.0249755535642 -1.713905218500 0.9996846108111 -79.90863613800 0.9996846108111 -79.90863613800 0.0249765868650 21.907479116193
8.692800000000000 0.0249746397452 -1.715572636166 0.9996846331801 -79.90961703550 0.9996846331801 -79.90961703550 0.0249756732413 21.907186455381
8.692900000000000 0.0249737242522 -1.717241047390 0.9996846555895 -79.91059803113 0.9996846555895 -79.91059803113 0.0249747579441 21.906894597099
8.693000000000001 0.0249728070827 -1.718910453990 0.9996846780396 -79.91157912503 0.9996846780396 -79.91157912503 0.0249738409709 21.906603542506
8.693100000000001 0.0249718882307 -1.720580859525 0.9996847005302 -79.91256031756 0.9996847005302 -79.91256031756 0.0249729223156 21.906313294855
8.693200000000001 0.0249709676914 -1.722252266911 0.9996847230616 -79.91354160901 0.9996847230616 -79.91354160901 0.0249720019735 21.906023856417
8.693300000000001 0.0249700454629 -1.723924677372 0.9996847456337 -79.91452299947 0.9996847456337 -79.91452299947 0.0249710799428 21.905735228501
8.693400000000000 0.0249691215380 -1.725598095627 0.9996847682469 -79.91550448938 0.9996847682469 -79.91550448938 0.0249701562161 21.905447414371
8.693500000000000 0.0249681959136 -1.727272523129 0.9996847909010 -79.91648607892 0.9996847909010 -79.91648607892 0.0249692307904 21.905160416070
8.693600000000000 0.0249672685856 -1.728947963085 0.9996848135963 -79.91746776834 0.9996848135963 -79.91746776834 0.0249683036616 21.904874235239
8.693700000000000 0.0249663395501 -1.730624417413 0.9996848363327 -79.91844955785 0.9996848363327 -79.91844955785 0.0249673748259 21.904588874293
8.693800000000001 0.0249654088020 -1.732301889866 0.9996848591106 -79.91943144777 0.9996848591106 -79.91943144777 0.0249664442779 21.904304335535
8.693900000000001 0.0249644763363 -1.733980382977 0.9996848819298 -79.92041343838 0.9996848819298 -79.92041343838 0.0249655120130 21.904020621733
8.694000000000001 0.0249635421494 -1.735659899282 0.9996849047906 -79.92139552990 0.9996849047906 -79.92139552990 0.0249645780273 21.903737734633
8.694100000000001 0.0249626062359 -1.737340442268 0.9996849276931 -79.92237772264 0.9996849276931 -79.92237772264 0.0249636423155 21.903455676932
8.694200000000000 0.0249616685942 -1.739022012979 0.9996849506372 -79.92336001671 0.9996849506372 -79.92336001671 0.0249627048760 21.903174449682
8.694300000000000 0.0249607292161 -1.740704616323 0.9996849736233 -79.92434241258 0.9996849736233 -79.92434241258 0.0249617657007 21.902894056805
8.694400000000000 0.0249597880991 -1.742388253618 0.9996849966512 -79.92532491040 0.9996849966512 -79.92532491040 0.0249608247869 21.902614500147
8.694500000000000 0.0249588452386 -1.744072928675 0.9996850197213 -79.92630751045 0.9996850197213 -79.92630751045 0.0249598821302 21.902335781184
8.694600000000001 0.0249579006302 -1.745758643553 0.9996850428335 -79.92729021298 0.9996850428335 -79.92729021298 0.0249589377260 21.902057902901
8.694700000000001 0.0249569542683 -1.747445401770 0.9996850659879 -79.92827301831 0.9996850659879 -79.92827301831 0.0249579915689 21.901780867845
8.694800000000001 0.0249560061507 -1.749133205018 0.9996850891847 -79.92925592659 0.9996850891847 -79.92925592659 0.0249570436565 21.901504677472
8.694900000000001 0.0249550562695 -1.750822057854 0.9996851124240 -79.93023893827 0.9996851124240 -79.93023893827 0.0249560939812 21.901229335502
8.695000000000000 0.0249541046221 -1.752511962326 0.9996851357059 -79.93122205352 0.9996851357059 -79.93122205352 0.0249551425401 21.900954843267
8.695100000000000 0.0249531512038 -1.754202921358 0.9996851590305 -79.93220527260 0.9996851590305 -79.93220527260 0.0249541893286 21.900681203259
8.695200000000000 0.0249521960113 -1.755894936736 0.9996851823978 -79.93318859571 0.9996851823978 -79.93318859571 0.0249532343435 21.900408417533
8.695300000000001 0.0249512390365 -1.757588013748 0.9996852058081 -79.93417202333 0.9996852058081 -79.93417202333 0.0249522775766 21.900136489643
8.695400000000001 0.0249502802782 -1.759282153135 0.9996852292613 -79.93515555553 0.9996852292613 -79.93515555553 0.0249513190267 21.899865420674
8.695500000000001 0.0249493197280 -1.760977359627 0.9996852527576 -79.93613919280 0.9996852527576 -79.93613919280 0.0249503586855 21.899595214968
8.695600000000001 0.0249483573859 -1.762673634269 0.9996852762971 -79.93712293515 0.9996852762971 -79.93712293515 0.0249493965529 21.899325872196
8.695700000000000 0.0249473932437 -1.764370981933 0.9996852998802 -79.93810678306 0.9996852998802 -79.93810678306 0.0249484326206 21.899057396391
8.695800000000000 0.0249464272985 -1.766069403839 0.9996853235065 -79.93909073669 0.9996853235065 -79.93909073669 0.0249474668860 21.898789789777
8.695900000000000 0.0249454595442 -1.767768904167 0.9996853471763 -79.94007479640 0.9996853471763 -79.94007479640 0.0249464993428 21.898523055094
8.696000000000000 0.0249444899766 -1.769469485834 0.9996853708900 -79.94105896246 0.9996853708900 -79.94105896246 0.0249455299868 21.898257194333
8.696100000000001 0.0249435185915 -1.771171151249 0.9996853946473 -79.94204323509 0.9996853946473 -79.94204323509 0.0249445588138 21.897992209884
8.696200000000001 0.0249425453824 -1.772873904039 0.9996854184484 -79.94302761469 0.9996854184484 -79.94302761469 0.0249435858174 21.897728105322
8.696300000000001 0.0249415703467 -1.774577746793 0.9996854422937 -79.94401210141 0.9996854422937 -79.94401210141 0.0249426109949 21.897464881433
8.696400000000001 0.0249405934780 -1.776282682603 0.9996854661829 -79.94499669563 0.9996854661829 -79.94499669563 0.0249416343400 21.897202542154
8.696500000000000 0.0249396147738 -1.777988714176 0.9996854901165 -79.94598139749 0.9996854901165 -79.94598139749 0.0249406558501 21.896941088046
8.696600000000000 0.0249386342256 -1.779695845735 0.9996855140943 -79.94696620749 0.9996855140943 -79.94696620749 0.0249396755168 21.896680524029
8.696700000000000 0.0249376518300 -1.781404079627 0.9996855381165 -79.94795112584 0.9996855381165 -79.94795112584 0.0249386933366 21.896420851938
8.696800000000001 0.0249366675842 -1.783113418526 0.9996855621834 -79.94893615269 0.9996855621834 -79.94893615269 0.0249377093067 21.896162072597
8.696900000000001 0.0249356814807 -1.784823866231 0.9996855862950 -79.94992128850 0.9996855862950 -79.94992128850 0.0249367234197 21.895904190413
8.697000000000001 0.0249346935155 -1.786535425142 0.9996856104511 -79.95090653349 0.9996856104511 -79.95090653349 0.0249357356717 21.895647207615
8.697100000000001 0.0249337036838 -1.788248099310 0.9996856346524 -79.95189188795 0.9996856346524 -79.95189188795 0.0249347460576 21.895391125940
8.697200000000000 0.0249327119796 -1.789961891317 0.9996856588985 -79.95287735224 0.9996856588985 -79.95287735224 0.0249337545716 21.895135949259
8.697300000000000 0.0249317183996 -1.791676803991 0.9996856831897 -79.95386292654 0.9996856831897 -79.95386292654 0.0249327612103 21.894881679012
8.697400000000000 0.0249307229372 -1.793392841550 0.9996857075263 -79.95484861125 0.9996857075263 -79.95484861125 0.0249317659672 21.894628318241
8.697500000000000 0.0249297255884 -1.795110006404 0.9996857319083 -79.95583440660 0.9996857319083 -79.95583440660 0.0249307688383 21.894375869163
8.697600000000001 0.0249287263486 -1.796828300849 0.9996857563355 -79.95682031287 0.9996857563355 -79.95682031287 0.0249297698189 21.894124334986
8.697700000000001 0.0249277252108 -1.798547730023 0.9996857808084 -79.95780633046 0.9996857808084 -79.95780633046 0.0249287689021 21.893873718204
8.697800000000001 0.0249267221718 -1.800268295869 0.9996858053271 -79.95879245957 0.9996858053271 -79.95879245957 0.0249277660847 21.893624020914
8.697900000000001 0.0249257172262 -1.801990001304 0.9996858298914 -79.95977870050 0.9996858298914 -79.95977870050 0.0249267613613 21.893375246235
8.698000000000000 0.0249247103678 -1.803712851014 0.9996858545019 -79.96076505364 0.9996858545019 -79.96076505364 0.0249257547256 21.893127396686
8.698100000000000 0.0249237015914 -1.805436847658 0.9996858791584 -79.96175151928 0.9996858791584 -79.96175151928 0.0249247461725 21.892880475452
8.698200000000000 0.0249226908922 -1.807161994335 0.9996859038610 -79.96273809771 0.9996859038610 -79.96273809771 0.0249237356971 21.892634484970
8.698300000000000 0.0249216782657 -1.808888294362 0.9996859286101 -79.96372478919 0.9996859286101 -79.96372478919 0.0249227232951 21.892389427167
8.698400000000001 0.0249206637068 -1.810615750000 0.9996859534052 -79.96471159401 0.9996859534052 -79.96471159401 0.0249217089613 21.892145305669
8.698500000000001 0.0249196472112 -1.812344365136 0.9996859782471 -79.96569851246 0.9996859782471 -79.96569851246 0.0249206926913 21.891902121819
8.698600000000001 0.0249186287711 -1.814074144311 0.9996860031357 -79.96668554496 0.9996860031357 -79.96668554496 0.0249196744773 21.891659879559
8.698700000000001 0.0249176083819 -1.815805089972 0.9996860280710 -79.96767269180 0.9996860280710 -79.96767269180 0.0249186543149 21.891418581772
8.698800000000000 0.0249165860387 -1.817537205181 0.9996860530531 -79.96865995327 0.9996860530531 -79.96865995327 0.0249176321992 21.891178231139
8.698900000000000 0.0249155617374 -1.819270493487 0.9996860780824 -79.96964732960 0.9996860780824 -79.96964732960 0.0249166081258 21.890938829084
8.699000000000000 0.0249145354709 -1.821004958371 0.9996861031587 -79.97063482122 0.9996861031587 -79.97063482122 0.0249155820879 21.890700379985
8.699100000000001 0.0249135072349 -1.822740603291 0.9996861282825 -79.97162242838 0.9996861282825 -79.97162242838 0.0249145540811 21.890462885447
8.699200000000001 0.0249124770228 -1.824477431768 0.9996861534534 -79.97261015147 0.9996861534534 -79.97261015147 0.0249135240987 21.890226349485
8.699300000000001 0.0249114448305 -1.826215446767 0.9996861786720 -79.97359799073 0.9996861786720 -79.97359799073 0.0249124921368 21.889990773895
8.699400000000001 0.0249104106537 -1.827954651070 0.9996862039381 -79.97458594641 0.9996862039381 -79.97458594641 0.0249114581910 21.889756161077
8.699500000000000 0.0249093744832 -1.829695050416 0.9996862292521 -79.97557401905 0.9996862292521 -79.97557401905 0.0249104222521 21.889522515356
8.699600000000000 0.0249083363169 -1.831436646086 0.9996862546140 -79.97656220879 0.9996862546140 -79.97656220879 0.0249093843179 21.889289838384
8.699700000000000 0.0249072961474 -1.833179442782 0.9996862800239 -79.97755051605 0.9996862800239 -79.97755051605 0.0249083443812 21.889058133663
8.699800000000000 0.0249062539715 -1.834923442258 0.9996863054817 -79.97853894102 0.9996863054817 -79.97853894102 0.0249073024388 21.888827403331
8.699900000000001 0.0249052097800 -1.836668650818 0.9996863309880 -79.97952748426 0.9996863309880 -79.97952748426 0.0249062584812 21.888597651533
8.700000000000001 0.0249041635728 -1.838415068515 0.9996863565427 -79.98051614575 0.9996863565427 -79.98051614575 0.0249052125086 21.888368878729