! Sonnet Data File
! From: emgraph Version : 16.52
! From Project: 171117_Xmon_fullysym
! Data is De-embedded 
! Data File Written: 11/26/2017 21:44:46
!< HDATE 11/26/2017 17:24:49
!< MDATE 11/26/2017 17:24:49
!< PARAMS
!< Lj = 11.0
!< Gap = 1.0
!< Pwid = 2000.0
!< Airgap = 6.0
!< Width = 10.0
!< Lj1 = 10.2
!< END PARAMS
# GHZ S MA R 50.90000
8.600000000000001 0.0254901188080 -0.369920998354 0.9996718118570 -79.01882035680 0.9996718118569 -79.01882035708 0.0254910561061 22.342312434113
!< P1 F=8.6 Eeff=(6.44845572 -2.9799e-5) Z0=(50.9087207 1.17006e-4) R=0.0 C=0.0 
!< P2 F=8.6 Eeff=(6.44845572 -2.9799e-5) Z0=(50.9087207 1.17006e-4) R=0.0 C=0.0 
8.600200000000001 0.0254897490232 -0.372427749473 0.9996718211220 -79.02069702051 0.9996718211220 -79.02069702051 0.0254906864388 22.341066526176
8.600400000000000 0.0254893780441 -0.374935199021 0.9996718303919 -79.02257375543 0.9996718303919 -79.02257375543 0.0254903155569 22.339821134828
8.600600000000000 0.0254890058368 -0.377443319420 0.9996718396928 -79.02445056137 0.9996718396928 -79.02445056137 0.0254899434470 22.338576274223
8.600800000000001 0.0254886323992 -0.379952111828 0.9996718490245 -79.02632743844 0.9996718490245 -79.02632743844 0.0254895701069 22.337331945525
8.601000000000001 0.0254882577273 -0.382461578549 0.9996718583873 -79.02820438686 0.9996718583873 -79.02820438686 0.0254891955328 22.336088150363
8.601200000000000 0.0254878818184 -0.384971721067 0.9996718677811 -79.03008140681 0.9996718677811 -79.03008140681 0.0254888197219 22.334844890068
8.601400000000000 0.0254875046684 -0.387482541603 0.9996718772061 -79.03195849852 0.9996718772061 -79.03195849852 0.0254884426701 22.333602166550
8.601600000000001 0.0254871262740 -0.389994042283 0.9996718866624 -79.03383566219 0.9996718866624 -79.03383566219 0.0254880643741 22.332359981205
8.601800000000001 0.0254867466325 -0.392506224617 0.9996718961501 -79.03571289798 0.9996718961501 -79.03571289798 0.0254876848311 22.331118335307
8.602000000000000 0.0254863657391 -0.395019091144 0.9996719056692 -79.03759020617 0.9996719056692 -79.03759020617 0.0254873040366 22.329877230983
8.602200000000000 0.0254859835921 -0.397532642979 0.9996719152198 -79.03946758685 0.9996719152198 -79.03946758685 0.0254869219886 22.328636669104
8.602400000000001 0.0254856001861 -0.400046883208 0.9996719248020 -79.04134504034 0.9996719248020 -79.04134504034 0.0254865386818 22.327396651987
8.602600000000001 0.0254852155193 -0.402561812804 0.9996719344159 -79.04322256676 0.9996719344159 -79.04322256676 0.0254861541144 22.326157180556
8.602800000000000 0.0254848295874 -0.405077434253 0.9996719440617 -79.04510016635 0.9996719440617 -79.04510016635 0.0254857682822 22.324918256729
8.603000000000000 0.0254844423874 -0.407593749312 0.9996719537392 -79.04697783929 0.9996719537392 -79.04697783929 0.0254853811819 22.323679881884
8.603200000000001 0.0254840539151 -0.410110760281 0.9996719634488 -79.04885558583 0.9996719634488 -79.04885558583 0.0254849928096 22.322442057890
8.603400000000001 0.0254836641673 -0.412628468842 0.9996719731903 -79.05073340614 0.9996719731903 -79.05073340614 0.0254846031622 22.321204786310
8.603600000000000 0.0254832731408 -0.415146877105 0.9996719829640 -79.05261130044 0.9996719829640 -79.05261130044 0.0254842122361 22.319968068515
8.603800000000000 0.0254828808313 -0.417665987487 0.9996719927699 -79.05448926895 0.9996719927699 -79.05448926895 0.0254838200273 22.318731906359
8.604000000000001 0.0254824872360 -0.420185801398 0.9996720026081 -79.05636731186 0.9996720026081 -79.05636731186 0.0254834265329 22.317496301386
8.604200000000001 0.0254820923515 -0.422706320951 0.9996720124787 -79.05824542935 0.9996720124787 -79.05824542935 0.0254830317495 22.316261254904
8.604400000000000 0.0254816961728 -0.425227548918 0.9996720223818 -79.06012362172 0.9996720223818 -79.06012362172 0.0254826356721 22.315026769253
8.604600000000001 0.0254812986983 -0.427749486185 0.9996720323174 -79.06200188908 0.9996720323174 -79.06200188908 0.0254822382991 22.313792845305
8.604800000000001 0.0254808999224 -0.430272136069 0.9996720422858 -79.06388023173 0.9996720422858 -79.06388023173 0.0254818396249 22.312559485299
8.605000000000000 0.0254804998431 -0.432795499657 0.9996720522868 -79.06575864981 0.9996720522868 -79.06575864981 0.0254814396475 22.311326690421
8.605200000000000 0.0254800984555 -0.435319579544 0.9996720623207 -79.06763714359 0.9996720623207 -79.06763714359 0.0254810383622 22.310094462807
8.605400000000001 0.0254796957571 -0.437844377508 0.9996720723875 -79.06951571324 0.9996720723875 -79.06951571324 0.0254806357661 22.308862803659
8.605600000000001 0.0254792917428 -0.440369896236 0.9996720824873 -79.07139435904 0.9996720824873 -79.07139435904 0.0254802318544 22.307631715083
8.605800000000000 0.0254788864107 -0.442896136819 0.9996720926203 -79.07327308111 0.9996720926203 -79.07327308111 0.0254798266252 22.306401198238
8.606000000000000 0.0254784797551 -0.445423102590 0.9996721027864 -79.07515187979 0.9996721027864 -79.07515187979 0.0254794200726 22.305171255499
8.606200000000001 0.0254780717737 -0.447950794840 0.9996721129859 -79.07703075520 0.9996721129858 -79.07703075520 0.0254790121944 22.303941888013
8.606400000000001 0.0254776624625 -0.450479215834 0.9996721232187 -79.07890970758 0.9996721232187 -79.07890970758 0.0254786029867 22.302713097609
8.606600000000000 0.0254772518176 -0.453008367853 0.9996721334850 -79.08078873717 0.9996721334850 -79.08078873717 0.0254781924455 22.301484885986
8.606800000000000 0.0254768398350 -0.455538253024 0.9996721437848 -79.08266784419 0.9996721437848 -79.08266784419 0.0254777805668 22.300257255093
8.607000000000001 0.0254764265113 -0.458068873466 0.9996721541183 -79.08454702885 0.9996721541183 -79.08454702885 0.0254773673472 22.299030206402
8.607200000000001 0.0254760118425 -0.460600231389 0.9996721644856 -79.08642629138 0.9996721644856 -79.08642629138 0.0254769527828 22.297803741665
8.607400000000000 0.0254755958251 -0.463132328811 0.9996721748868 -79.08830563199 0.9996721748868 -79.08830563199 0.0254765368700 22.296577862643
8.607600000000000 0.0254751784550 -0.465665168047 0.9996721853218 -79.09018505092 0.9996721853218 -79.09018505092 0.0254761196047 22.295352571117
8.607800000000001 0.0254747597284 -0.468198751353 0.9996721957910 -79.09206454838 0.9996721957909 -79.09206454838 0.0254757009831 22.294127868739
8.608000000000001 0.0254743396410 -0.470733081012 0.9996722062942 -79.09394412464 0.9996722062942 -79.09394412464 0.0254752810011 22.292903757574
8.608200000000000 0.0254739181899 -0.473268158889 0.9996722168317 -79.09582377987 0.9996722168317 -79.09582377987 0.0254748596554 22.291680238944
8.608400000000001 0.0254734953706 -0.475803987391 0.9996722274035 -79.09770351432 0.9996722274035 -79.09770351432 0.0254744369418 22.290457314933
8.608600000000001 0.0254730711794 -0.478340568808 0.9996722380097 -79.09958332822 0.9996722380097 -79.09958332822 0.0254740128566 22.289234987072
8.608800000000000 0.0254726456119 -0.480877905442 0.9996722486504 -79.10146322182 0.9996722486504 -79.10146322182 0.0254735873953 22.288013257550
8.609000000000000 0.0254722186647 -0.483415999358 0.9996722593258 -79.10334319533 0.9996722593258 -79.10334319533 0.0254731605545 22.286792127812
8.609200000000001 0.0254717903339 -0.485954852882 0.9996722700359 -79.10522324897 0.9996722700359 -79.10522324897 0.0254727323303 22.285571599656
8.609400000000001 0.0254713606149 -0.488494468511 0.9996722807808 -79.10710338302 0.9996722807808 -79.10710338302 0.0254723027181 22.284351675143
8.609600000000000 0.0254709295047 -0.491034847856 0.9996722915605 -79.10898359764 0.9996722915605 -79.10898359764 0.0254718717151 22.283132355860
8.609800000000000 0.0254704969981 -0.493575994087 0.9996723023753 -79.11086389314 0.9996723023753 -79.11086389314 0.0254714393159 22.281913643867
8.610000000000001 0.0254700630922 -0.496117908796 0.9996723132252 -79.11274426971 0.9996723132252 -79.11274426971 0.0254710055175 22.280695540773
8.610200000000001 0.0254696277827 -0.498660594526 0.9996723241103 -79.11462472758 0.9996723241103 -79.11462472758 0.0254705703158 22.279478048253
8.610400000000000 0.0254691910652 -0.501204053641 0.9996723350307 -79.11650526701 0.9996723350307 -79.11650526701 0.0254701337063 22.278261168628
8.610600000000000 0.0254687529357 -0.503748288534 0.9996723459865 -79.11838588825 0.9996723459865 -79.11838588825 0.0254696956851 22.277044903481
8.610800000000001 0.0254683133901 -0.506293301472 0.9996723569778 -79.12026659153 0.9996723569778 -79.12026659153 0.0254692562481 22.275829254754
8.611000000000001 0.0254678724248 -0.508839094568 0.9996723680047 -79.12214737706 0.9996723680047 -79.12214737706 0.0254688153916 22.274614224179
8.611200000000000 0.0254674300349 -0.511385670744 0.9996723790674 -79.12402824513 0.9996723790674 -79.12402824513 0.0254683731106 22.273399813892
8.611400000000000 0.0254669862171 -0.513933031716 0.9996723901658 -79.12590919594 0.9996723901658 -79.12590919594 0.0254679294020 22.272186025441
8.611600000000001 0.0254665409670 -0.516481179969 0.9996724013001 -79.12779022974 0.9996724013001 -79.12779022974 0.0254674842614 22.270972860888
8.611800000000001 0.0254660942800 -0.519030118384 0.9996724124705 -79.12967134681 0.9996724124705 -79.12967134681 0.0254670376841 22.269760322183
8.612000000000000 0.0254656461521 -0.521579848963 0.9996724236769 -79.13155254737 0.9996724236769 -79.13155254737 0.0254665896662 22.268548411347
8.612200000000001 0.0254651965791 -0.524130374201 0.9996724349196 -79.13343383168 0.9996724349196 -79.13343383168 0.0254661402034 22.267337130230
8.612400000000001 0.0254647455570 -0.526681696586 0.9996724461986 -79.13531519997 0.9996724461986 -79.13531519997 0.0254656892917 22.266126480574
8.612600000000000 0.0254642930819 -0.529233818102 0.9996724575140 -79.13719665246 0.9996724575140 -79.13719665246 0.0254652369274 22.264916464264
8.612800000000000 0.0254638391487 -0.531786741800 0.9996724688660 -79.13907818947 0.9996724688660 -79.13907818947 0.0254647831051 22.263707083630
8.613000000000001 0.0254633837542 -0.534340469503 0.9996724802545 -79.14095981117 0.9996724802545 -79.14095981117 0.0254643278218 22.262498340104
8.613200000000001 0.0254629268929 -0.536895004379 0.9996724916799 -79.14284151790 0.9996724916799 -79.14284151790 0.0254638710719 22.261290236185
8.613400000000000 0.0254624685610 -0.539450348557 0.9996725031421 -79.14472330987 0.9996725031421 -79.14472330987 0.0254634128517 22.260082773594
8.613600000000000 0.0254620087547 -0.542006504166 0.9996725146412 -79.14660518730 0.9996725146412 -79.14660518730 0.0254629531573 22.258875954222
8.613800000000001 0.0254615474691 -0.544563474094 0.9996725261773 -79.14848715049 0.9996725261773 -79.14848715049 0.0254624919839 22.257669780203
8.614000000000001 0.0254610847002 -0.547121260642 0.9996725377507 -79.15036919966 0.9996725377507 -79.15036919966 0.0254620293274 22.256464253312
8.614200000000000 0.0254606204433 -0.549679866566 0.9996725493613 -79.15225133511 0.9996725493613 -79.15225133511 0.0254615651832 22.255259375753
8.614400000000000 0.0254601546937 -0.552239294310 0.9996725610093 -79.15413355709 0.9996725610093 -79.15413355709 0.0254610995466 22.254055149762
8.614600000000001 0.0254596874475 -0.554799546400 0.9996725726948 -79.15601586584 0.9996725726948 -79.15601586584 0.0254606324135 22.252851576999
8.614800000000001 0.0254592187007 -0.557360625039 0.9996725844179 -79.15789826160 0.9996725844179 -79.15789826160 0.0254601637802 22.251648659342
8.615000000000000 0.0254587484476 -0.559922533334 0.9996725961787 -79.15978074469 0.9996725961787 -79.15978074469 0.0254596936409 22.250446399389
8.615200000000000 0.0254582766855 -0.562485273071 0.9996726079773 -79.16166331529 0.9996726079773 -79.16166331529 0.0254592219927 22.249244798499
8.615400000000001 0.0254578034082 -0.565048847719 0.9996726198138 -79.16354597375 0.9996726198138 -79.16354597375 0.0254587488297 22.248043859322
8.615600000000001 0.0254573286120 -0.567613259442 0.9996726316884 -79.16542872030 0.9996726316884 -79.16542872030 0.0254582741478 22.246843583710
8.615800000000000 0.0254568522923 -0.570178510684 0.9996726436011 -79.16731155518 0.9996726436011 -79.16731155518 0.0254577979430 22.245643973678
8.616000000000000 0.0254563744447 -0.572744604210 0.9996726555521 -79.16919447869 0.9996726555521 -79.16919447869 0.0254573202103 22.244445031374
8.616200000000001 0.0254558950641 -0.575311542813 0.9996726675415 -79.17107749109 0.9996726675415 -79.17107749109 0.0254568409450 22.243246758941
8.616400000000001 0.0254554141473 -0.577879328429 0.9996726795693 -79.17296059260 0.9996726795693 -79.17296059260 0.0254563601437 22.242049157972
8.616600000000000 0.0254549316875 -0.580447964810 0.9996726916358 -79.17484378360 0.9996726916358 -79.17484378360 0.0254558777997 22.240852231636
8.616800000000001 0.0254544476821 -0.583017453540 0.9996727037409 -79.17672706425 0.9996727037409 -79.17672706425 0.0254553939104 22.239655981023
8.617000000000001 0.0254539621255 -0.585587797903 0.9996727158849 -79.17861043487 0.9996727158849 -79.17861043487 0.0254549084702 22.238460408709
8.617200000000000 0.0254534750134 -0.588159000439 0.9996727280678 -79.18049389573 0.9996727280678 -79.18049389573 0.0254544214745 22.237265516682
8.617400000000000 0.0254529863408 -0.590731063805 0.9996727402898 -79.18237744711 0.9996727402898 -79.18237744711 0.0254539329188 22.236071307195
8.617600000000001 0.0254524961033 -0.593303990459 0.9996727525509 -79.18426108928 0.9996727525509 -79.18426108928 0.0254534427985 22.234877782518
8.617800000000001 0.0254520042958 -0.595877783612 0.9996727648513 -79.18614482252 0.9996727648513 -79.18614482252 0.0254529511083 22.233684944677
8.618000000000000 0.0254515109137 -0.598452445801 0.9996727771912 -79.18802864712 0.9996727771912 -79.18802864712 0.0254524578439 22.232492795829
8.618200000000000 0.0254510159531 -0.601027979175 0.9996727895705 -79.18991256330 0.9996727895705 -79.18991256330 0.0254519630012 22.231301338080
8.618400000000001 0.0254505194080 -0.603604387159 0.9996728019894 -79.19179657141 0.9996728019894 -79.19179657141 0.0254514665744 22.230110573854
8.618600000000001 0.0254500212737 -0.606181672752 0.9996728144482 -79.19368067174 0.9996728144482 -79.19368067174 0.0254509685586 22.228920505309
8.618800000000000 0.0254495215465 -0.608759837822 0.9996728269467 -79.19556486449 0.9996728269467 -79.19556486449 0.0254504689501 22.227731134357
8.619000000000000 0.0254490202204 -0.611338885781 0.9996728394853 -79.19744915002 0.9996728394853 -79.19744915002 0.0254499677431 22.226542463629
8.619200000000001 0.0254485172913 -0.613918819233 0.9996728520640 -79.19933352857 0.9996728520640 -79.19933352857 0.0254494649332 22.225354495016
8.619400000000001 0.0254480127544 -0.616499640692 0.9996728646829 -79.20121800042 0.9996728646829 -79.20121800042 0.0254489605160 22.224167230754
8.619600000000000 0.0254475066044 -0.619081353303 0.9996728773421 -79.20310256589 0.9996728773421 -79.20310256589 0.0254484544859 22.222980673299
8.619800000000000 0.0254469988359 -0.621663960283 0.9996728900419 -79.20498722529 0.9996728900419 -79.20498722529 0.0254479468375 22.221794825012
8.620000000000001 0.0254464894441 -0.624247464182 0.9996729027822 -79.20687197890 0.9996729027822 -79.20687197890 0.0254474375661 22.220609688230
8.620200000000001 0.0254459784250 -0.626831867506 0.9996729155633 -79.20875682696 0.9996729155633 -79.20875682696 0.0254469266678 22.219425264636
8.620400000000000 0.0254454657735 -0.629417173011 0.9996729283851 -79.21064176977 0.9996729283851 -79.21064176977 0.0254464141372 22.218241556895
8.620600000000001 0.0254449514834 -0.632003384376 0.9996729412479 -79.21252680769 0.9996729412479 -79.21252680769 0.0254458999684 22.217058567551
8.620800000000001 0.0254444355509 -0.634590503674 0.9996729541518 -79.21441194094 0.9996729541518 -79.21441194094 0.0254453841575 22.215876298514
8.621000000000000 0.0254439179703 -0.637178534320 0.9996729670969 -79.21629716987 0.9996729670969 -79.21629716987 0.0254448666987 22.214694752384
8.621200000000000 0.0254433987371 -0.639767478921 0.9996729800833 -79.21818249473 0.9996729800833 -79.21818249473 0.0254443475877 22.213513931083
8.621400000000001 0.0254428778457 -0.642357340515 0.9996729931112 -79.22006791585 0.9996729931112 -79.22006791585 0.0254438268187 22.212333837488
8.621600000000001 0.0254423552909 -0.644948122383 0.9996730061806 -79.22195343355 0.9996730061806 -79.22195343355 0.0254433043866 22.211154473683
8.621800000000000 0.0254418310674 -0.647539827249 0.9996730192918 -79.22383904812 0.9996730192918 -79.22383904812 0.0254427802862 22.209975842260
8.622000000000000 0.0254413051714 -0.650132457555 0.9996730324448 -79.22572475979 0.9996730324448 -79.22572475979 0.0254422545135 22.208797944988
8.622200000000001 0.0254407775962 -0.652726017011 0.9996730456397 -79.22761056897 0.9996730456397 -79.22761056897 0.0254417270619 22.207620784939
8.622400000000001 0.0254402483376 -0.655320508108 0.9996730588767 -79.22949647588 0.9996730588767 -79.22949647588 0.0254411979272 22.206444364075
8.622600000000000 0.0254397173896 -0.657915934448 0.9996730721560 -79.23138248090 0.9996730721560 -79.23138248090 0.0254406671033 22.205268684998
8.622800000000000 0.0254391847475 -0.660512298360 0.9996730854775 -79.23326858428 0.9996730854775 -79.23326858428 0.0254401345857 22.204093750130
8.623000000000001 0.0254386504055 -0.663109603601 0.9996730988416 -79.23515478639 0.9996730988416 -79.23515478639 0.0254396003684 22.202919561877
8.623200000000001 0.0254381143593 -0.665707852263 0.9996731122481 -79.23704108745 0.9996731122481 -79.23704108745 0.0254390644474 22.201746122568
8.623400000000000 0.0254375766024 -0.668307048412 0.9996731256975 -79.23892748786 0.9996731256975 -79.23892748786 0.0254385268158 22.200573434845
8.623600000000000 0.0254370371306 -0.670907194336 0.9996731391897 -79.24081398787 0.9996731391897 -79.24081398787 0.0254379874698 22.199401500788
8.623800000000001 0.0254364959373 -0.673508293903 0.9996731527249 -79.24270058786 0.9996731527249 -79.24270058786 0.0254374464024 22.198230323407
8.624000000000001 0.0254359530182 -0.676110349516 0.9996731663033 -79.24458728808 0.9996731663033 -79.24458728808 0.0254369036096 22.197059904772
8.624200000000000 0.0254354083675 -0.678713364464 0.9996731799248 -79.24647408889 0.9996731799248 -79.24647408889 0.0254363590855 22.195890247641
8.624400000000001 0.0254348619795 -0.681317342125 0.9996731935898 -79.24836099059 0.9996731935898 -79.24836099059 0.0254358128244 22.194721354422
8.624600000000001 0.0254343138486 -0.683922285856 0.9996732072983 -79.25024799355 0.9996732072983 -79.25024799355 0.0254352648207 22.193553227741
8.624800000000000 0.0254337639708 -0.686528197844 0.9996732210504 -79.25213509797 0.9996732210504 -79.25213509797 0.0254347150704 22.192385869538
8.625000000000000 0.0254332123384 -0.689135082370 0.9996732348464 -79.25402230432 0.9996732348464 -79.25402230432 0.0254341635659 22.191219283336
8.625200000000001 0.0254326589481 -0.691742941692 0.9996732486863 -79.25590961280 0.9996732486863 -79.25590961280 0.0254336103037 22.190053470598
8.625400000000001 0.0254321037931 -0.694351779324 0.9996732625701 -79.25779702379 0.9996732625701 -79.25779702379 0.0254330552771 22.188888434716
8.625600000000000 0.0254315468673 -0.696961599076 0.9996732764982 -79.25968453766 0.9996732764982 -79.25968453766 0.0254324984802 22.187724178123
8.625800000000000 0.0254309881661 -0.699572403591 0.9996732904707 -79.26157215468 0.9996732904707 -79.26157215468 0.0254319399080 22.186560703214
8.626000000000001 0.0254304276834 -0.702184196323 0.9996733044876 -79.26345987521 0.9996733044876 -79.26345987521 0.0254313795547 22.185398012682
8.626200000000001 0.0254298654140 -0.704796980167 0.9996733185491 -79.26534769955 0.9996733185491 -79.26534769955 0.0254308174150 22.184236109136
8.626400000000000 0.0254293013519 -0.707410758687 0.9996733326554 -79.26723562806 0.9996733326554 -79.26723562806 0.0254302534830 22.183074995127
8.626600000000000 0.0254287354912 -0.710025535445 0.9996733468066 -79.26912366108 0.9996733468066 -79.26912366108 0.0254296877526 22.181914673388
8.626800000000001 0.0254281678262 -0.712641313572 0.9996733610028 -79.27101179894 0.9996733610028 -79.27101179894 0.0254291202182 22.180755146630
8.627000000000001 0.0254275983521 -0.715258095834 0.9996733752441 -79.27290004194 0.9996733752441 -79.27290004194 0.0254285508752 22.179596417060
8.627200000000000 0.0254270270617 -0.717875886380 0.9996733895308 -79.27478839048 0.9996733895308 -79.27478839048 0.0254279797161 22.178438488086
8.627400000000000 0.0254264539503 -0.720494688072 0.9996734038629 -79.27667684486 0.9996734038629 -79.27667684486 0.0254274067364 22.177281361670
8.627600000000001 0.0254258790117 -0.723114504392 0.9996734182406 -79.27856540543 0.9996734182406 -79.27856540543 0.0254268319297 22.176125040944
8.627800000000001 0.0254253022391 -0.725735339078 0.9996734326641 -79.28045407258 0.9996734326641 -79.28045407258 0.0254262552894 22.174969528911
8.628000000000000 0.0254247236290 -0.728357194603 0.9996734471334 -79.28234284654 0.9996734471334 -79.28234284654 0.0254256768119 22.173814827196
8.628200000000001 0.0254241431730 -0.730980075348 0.9996734616487 -79.28423172779 0.9996734616487 -79.28423172779 0.0254250964889 22.172660939774
8.628400000000001 0.0254235608666 -0.733603984246 0.9996734762103 -79.28612071659 0.9996734762103 -79.28612071659 0.0254245143158 22.171507868589
8.628600000000000 0.0254229767032 -0.736228924948 0.9996734908181 -79.28800981334 0.9996734908181 -79.28800981334 0.0254239302860 22.170355616846
8.628800000000000 0.0254223906769 -0.738854900981 0.9996735054724 -79.28989901837 0.9996735054724 -79.28989901837 0.0254233443937 22.169204187062
8.629000000000001 0.0254218027821 -0.741481915469 0.9996735201733 -79.29178833203 0.9996735201733 -79.29178833203 0.0254227566332 22.168053582085
8.629200000000001 0.0254212130128 -0.744109972024 0.9996735349210 -79.29367775466 0.9996735349210 -79.29367775466 0.0254221669985 22.166903804553
8.629400000000000 0.0254206213623 -0.746739074366 0.9996735497155 -79.29556728665 0.9996735497155 -79.29556728665 0.0254215754830 22.165754857625
8.629600000000000 0.0254200278248 -0.749369225876 0.9996735645572 -79.29745692834 0.9996735645572 -79.29745692834 0.0254209820809 22.164606743931
8.629800000000001 0.0254194323939 -0.752000430479 0.9996735794460 -79.29934668013 0.9996735794460 -79.29934668013 0.0254203867855 22.163459466439
8.630000000000001 0.0254188350642 -0.754632690950 0.9996735943822 -79.30123654230 0.9996735943822 -79.30123654230 0.0254197895919 22.162313027749
8.630200000000000 0.0254182358294 -0.757266011327 0.9996736093659 -79.30312651526 0.9996736093659 -79.30312651526 0.0254191904934 22.161167430673
8.630400000000000 0.0254176346828 -0.759900394995 0.9996736243972 -79.30501659937 0.9996736243972 -79.30501659937 0.0254185894835 22.160022678531
8.630600000000001 0.0254170316181 -0.762535846015 0.9996736394763 -79.30690679501 0.9996736394763 -79.30690679501 0.0254179865558 22.158878773993
8.630800000000001 0.0254164266291 -0.765172367998 0.9996736546035 -79.30879710256 0.9996736546035 -79.30879710256 0.0254173817042 22.157735719847
8.631000000000000 0.0254158197098 -0.767809964082 0.9996736697787 -79.31068752235 0.9996736697787 -79.31068752235 0.0254167749227 22.156593519169
8.631200000000000 0.0254152108542 -0.770448638035 0.9996736850022 -79.31257805474 0.9996736850022 -79.31257805474 0.0254161662052 22.155452174639
8.631400000000001 0.0254146000549 -0.773088393960 0.9996737002741 -79.31446870018 0.9996737002741 -79.31446870018 0.0254155555443 22.154311689740
8.631600000000001 0.0254139873065 -0.775729235119 0.9996737155947 -79.31635945896 0.9996737155947 -79.31635945896 0.0254149429347 22.153172066825
8.631800000000000 0.0254133726024 -0.778371165308 0.9996737309639 -79.31825033150 0.9996737309639 -79.31825033150 0.0254143283697 22.152033309184
8.632000000000000 0.0254127559358 -0.781014188419 0.9996737463820 -79.32014131817 0.9996737463820 -79.32014131817 0.0254137118427 22.150895419707
8.632200000000001 0.0254121373007 -0.783658307964 0.9996737618492 -79.32203241933 0.9996737618492 -79.32203241933 0.0254130933474 22.149758401395
8.632400000000001 0.0254115166899 -0.786303528139 0.9996737773656 -79.32392363542 0.9996737773656 -79.32392363542 0.0254124728768 22.148622257488
8.632600000000000 0.0254108940981 -0.788949851997 0.9996737929314 -79.32581496674 0.9996737929314 -79.32581496674 0.0254118504256 22.147486990589
8.632800000000001 0.0254102695169 -0.791597284340 0.9996738085467 -79.32770641378 0.9996738085467 -79.32770641378 0.0254112259853 22.146352604414
8.633000000000001 0.0254096429413 -0.794245828049 0.9996738242116 -79.32959797683 0.9996738242116 -79.32959797683 0.0254105995511 22.145219101416
8.633200000000000 0.0254090143646 -0.796895487318 0.9996738399265 -79.33148965629 0.9996738399265 -79.33148965629 0.0254099711161 22.144086484542
8.633400000000000 0.0254083837788 -0.799546266454 0.9996738556913 -79.33338145264 0.9996738556913 -79.33338145264 0.0254093406723 22.142954757726
8.633600000000001 0.0254077511788 -0.802198168592 0.9996738715064 -79.33527336617 0.9996738715064 -79.33527336617 0.0254087082147 22.141823923212
8.633800000000001 0.0254071165571 -0.804851197819 0.9996738873717 -79.33716539731 0.9996738873717 -79.33716539731 0.0254080737359 22.140693984623
8.634000000000000 0.0254064799077 -0.807505358076 0.9996739032876 -79.33905754643 0.9996739032876 -79.33905754643 0.0254074372296 22.139564944578
8.634200000000000 0.0254058412212 -0.810160654300 0.9996739192541 -79.34094981408 0.9996739192541 -79.34094981408 0.0254067986866 22.138436807528
8.634400000000001 0.0254052004945 -0.812817088763 0.9996739352715 -79.34284220043 0.9996739352715 -79.34284220043 0.0254061581039 22.137309574805
8.634600000000001 0.0254045577190 -0.815474666141 0.9996739513399 -79.34473470600 0.9996739513399 -79.34473470600 0.0254055154726 22.136183250760
8.634800000000000 0.0254039128871 -0.818133390920 0.9996739674594 -79.34662733122 0.9996739674594 -79.34662733122 0.0254048707854 22.135057838563
8.635000000000000 0.0254032659942 -0.820793265891 0.9996739836302 -79.34852007638 0.9996739836302 -79.34852007638 0.0254042240376 22.133933340536
8.635200000000001 0.0254026170303 -0.823454296763 0.9996739998527 -79.35041294205 0.9996739998527 -79.35041294205 0.0254035752192 22.132809761123
8.635400000000001 0.0254019659906 -0.826116486205 0.9996740161267 -79.35230592852 0.9996740161267 -79.35230592852 0.0254029243253 22.131687102933
8.635600000000000 0.0254013128676 -0.828779839005 0.9996740324527 -79.35419903624 0.9996740324527 -79.35419903624 0.0254022713485 22.130565369012
8.635800000000000 0.0254006576542 -0.831444358724 0.9996740488306 -79.35609226561 0.9996740488306 -79.35609226561 0.0254016162817 22.129444563121
8.636000000000001 0.0254000003432 -0.834110049926 0.9996740652607 -79.35798561707 0.9996740652607 -79.35798561707 0.0254009591177 22.128324688386
8.636200000000001 0.0253993409280 -0.836776916278 0.9996740817431 -79.35987909098 0.9996740817431 -79.35987909098 0.0254002998499 22.127205747826
8.636400000000000 0.0253986794005 -0.839444962598 0.9996740982782 -79.36177268785 0.9996740982782 -79.36177268785 0.0253996384702 22.126087745296
8.636600000000001 0.0253980157545 -0.842114192474 0.9996741148659 -79.36366640803 0.9996741148659 -79.36366640803 0.0253989749723 22.124970683677
8.636800000000001 0.0253973499827 -0.844784610031 0.9996741315065 -79.36556025194 0.9996741315065 -79.36556025194 0.0253983093491 22.123854566433
8.637000000000000 0.0253966820770 -0.847456220037 0.9996741482002 -79.36745422007 0.9996741482002 -79.36745422007 0.0253976415924 22.122739397286
8.637200000000000 0.0253960120310 -0.850129026418 0.9996741649471 -79.36934831279 0.9996741649471 -79.36934831279 0.0253969716957 22.121625179133
8.637400000000001 0.0253953398369 -0.852803033412 0.9996741817475 -79.37124253055 0.9996741817475 -79.37124253055 0.0253962996514 22.120511915738
8.637600000000001 0.0253946654881 -0.855478245033 0.9996741986014 -79.37313687376 0.9996741986014 -79.37313687376 0.0253956254527 22.119399610172
8.637800000000000 0.0253939889762 -0.858154666076 0.9996742155091 -79.37503134289 0.9996742155091 -79.37503134289 0.0253949490914 22.118288266291
8.638000000000000 0.0253933102946 -0.860832300307 0.9996742324707 -79.37692593834 0.9996742324707 -79.37692593834 0.0253942705609 22.117177887364
8.638200000000001 0.0253926294359 -0.863511152322 0.9996742494865 -79.37882066054 0.9996742494865 -79.37882066054 0.0253935898535 22.116068476593
8.638400000000001 0.0253919463920 -0.866191226615 0.9996742665567 -79.38071550997 0.9996742665567 -79.38071550997 0.0253929069614 22.114960037862
8.638600000000000 0.0253912611553 -0.868872527699 0.9996742836813 -79.38261048708 0.9996742836813 -79.38261048708 0.0253922218769 22.113852574713
8.638800000000000 0.0253905737196 -0.871555059133 0.9996743008606 -79.38450559223 0.9996743008606 -79.38450559223 0.0253915345938 22.112746090105
8.639000000000001 0.0253898840755 -0.874238826273 0.9996743180947 -79.38640082596 0.9996743180947 -79.38640082596 0.0253908451028 22.111640588403
8.639200000000001 0.0253891922171 -0.876923832885 0.9996743353840 -79.38829618865 0.9996743353840 -79.38829618865 0.0253901533978 22.110536072330
8.639400000000000 0.0253884981353 -0.879610083956 0.9996743527284 -79.39019168080 0.9996743527284 -79.39019168080 0.0253894594699 22.109432546145
8.639600000000000 0.0253878018227 -0.882297583980 0.9996743701284 -79.39208730285 0.9996743701284 -79.39208730285 0.0253887633117 22.108330013176
8.639800000000001 0.0253871032723 -0.884986336955 0.9996743875839 -79.39398305523 0.9996743875839 -79.39398305523 0.0253880649160 22.107228476981
8.640000000000001 0.0253864024760 -0.887676347616 0.9996744050952 -79.39587893841 0.9996744050952 -79.39587893841 0.0253873642748 22.106127941198
8.640200000000000 0.0253856994253 -0.890367620782 0.9996744226625 -79.39777495288 0.9996744226625 -79.39777495288 0.0253866613798 22.105028409845