! Sonnet Data File
! From: emgraph Version : 16.52
! From Project: 171117_Xmon_fullysym
! Data is De-embedded 
! Data File Written: 11/26/2017 17:14:22
!< HDATE 11/22/2017 16:48:52
!< MDATE 11/23/2017 10:16:42
!< PARAMS
!< Lj = 11.0
!< Gap = 1.0
!< Pwid = 2000.0
!< Airgap = 6.0
!< Width = 10.0
!< Lj1 = 10.0
!< END PARAMS
# GHZ S MA R 50.90000
8.680000000000000 0.0252354027182 -1.436800924444 0.9996781490902 -79.77569481509 0.9996781490887 -79.77569481497 0.0252364068944 21.895973815034
!< P1 F=8.68 Eeff=(6.44843488 -2.9797e-5) Z0=(50.9086135 1.17022e-4) R=0.0 C=0.0 
!< P2 F=8.68 Eeff=(6.44843488 -2.9797e-5) Z0=(50.9086135 1.17022e-4) R=0.0 C=0.0 
8.680100000000001 0.0252347185364 -1.438336515096 0.9996781659344 -79.77666227597 0.9996781659344 -79.77666227597 0.0252357228588 21.895575666744
8.680200000000001 0.0252340330622 -1.439872844176 0.9996781828101 -79.77762981254 0.9996781828101 -79.77762981254 0.0252350375327 21.895178115983
8.680300000000001 0.0252333462890 -1.441409920761 0.9996781997175 -79.77859742511 0.9996781997175 -79.77859742511 0.0252343509080 21.894781165617
8.680400000000001 0.0252326582132 -1.442947747800 0.9996782166573 -79.77956511390 0.9996782166573 -79.77956511390 0.0252336629810 21.894384816503
8.680500000000000 0.0252319688311 -1.444486327078 0.9996782336292 -79.78053287912 0.9996782336292 -79.78053287912 0.0252329737481 21.893989070897
8.680600000000000 0.0252312781395 -1.446025660234 0.9996782506333 -79.78150072096 0.9996782506333 -79.78150072096 0.0252322832061 21.893593930494
8.680700000000000 0.0252305861362 -1.447565749289 0.9996782676698 -79.78246863956 0.9996782676698 -79.78246863956 0.0252315913528 21.893199395781
8.680800000000001 0.0252298928173 -1.449106595993 0.9996782847387 -79.78343663513 0.9996782847387 -79.78343663513 0.0252308981842 21.892805469295
8.680900000000001 0.0252291981800 -1.450648202207 0.9996783018401 -79.78440470785 0.9996783018401 -79.78440470785 0.0252302036976 21.892412152168
8.681000000000001 0.0252285022217 -1.452190569424 0.9996783189740 -79.78537285787 0.9996783189740 -79.78537285787 0.0252295078903 21.892019445764
8.681100000000001 0.0252278049393 -1.453733699762 0.9996783361405 -79.78634108537 0.9996783361405 -79.78634108537 0.0252288107594 21.891627351342
8.681200000000000 0.0252271063272 -1.455277596309 0.9996783533398 -79.78730939068 0.9996783533398 -79.78730939068 0.0252281122991 21.891235871693
8.681300000000000 0.0252264063849 -1.456822259514 0.9996783705719 -79.78827777384 0.9996783705719 -79.78827777384 0.0252274125089 21.890845007239
8.681400000000000 0.0252257051077 -1.458367692361 0.9996783878369 -79.78924623510 0.9996783878369 -79.78924623510 0.0252267113843 21.890454759782
8.681500000000000 0.0252250024917 -1.459913896726 0.9996784051348 -79.79021477471 0.9996784051348 -79.79021477471 0.0252260089212 21.890065131845
8.681600000000001 0.0252242985363 -1.461460873199 0.9996784224657 -79.79118339271 0.9996784224657 -79.79118339271 0.0252253051191 21.889676123538
8.681700000000001 0.0252235932352 -1.463008625796 0.9996784398297 -79.79215208945 0.9996784398297 -79.79215208945 0.0252245999717 21.889287737504
8.681800000000001 0.0252228865881 -1.464557154476 0.9996784572269 -79.79312086496 0.9996784572269 -79.79312086496 0.0252238934787 21.888899974334
8.681900000000001 0.0252221785886 -1.466106462829 0.9996784746573 -79.79408971962 0.9996784746573 -79.79408971962 0.0252231856336 21.888512837187
8.682000000000000 0.0252214692348 -1.467656552716 0.9996784921213 -79.79505865354 0.9996784921213 -79.79505865354 0.0252224764346 21.888126326361
8.682100000000000 0.0252207585240 -1.469207424682 0.9996785096183 -79.79602766687 0.9996785096183 -79.79602766687 0.0252217658790 21.887740444293
8.682200000000000 0.0252200464526 -1.470759081865 0.9996785271490 -79.79699675983 0.9996785271490 -79.79699675983 0.0252210539632 21.887355191743
8.682300000000000 0.0252193330167 -1.472311526284 0.9996785447132 -79.79796593265 0.9996785447132 -79.79796593265 0.0252203406833 21.886970570841
8.682400000000001 0.0252186182134 -1.473864759573 0.9996785623111 -79.79893518549 0.9996785623111 -79.79893518549 0.0252196260364 21.886586583184
8.682500000000001 0.0252179020390 -1.475418784085 0.9996785799427 -79.79990451859 0.9996785799427 -79.79990451859 0.0252189100187 21.886203230465
8.682600000000001 0.0252171844904 -1.476973601439 0.9996785976080 -79.80087393210 0.9996785976080 -79.80087393210 0.0252181926273 21.885820514327
8.682700000000001 0.0252164655647 -1.478529213828 0.9996786153074 -79.80184342622 0.9996786153074 -79.80184342622 0.0252174738591 21.885438435849
8.682800000000000 0.0252157452566 -1.480085624094 0.9996786330407 -79.80281300125 0.9996786330407 -79.80281300125 0.0252167537089 21.885056997842
8.682900000000000 0.0252150235665 -1.481642832163 0.9996786508079 -79.80378265717 0.9996786508079 -79.80378265717 0.0252160321771 21.884676200283
8.683000000000000 0.0252143004865 -1.483200842811 0.9996786686094 -79.80475239444 0.9996786686094 -79.80475239444 0.0252153092557 21.884296046481
8.683100000000001 0.0252135760155 -1.484759656286 0.9996786864450 -79.80572221312 0.9996786864450 -79.80572221312 0.0252145849439 21.883916537555
8.683200000000001 0.0252128501505 -1.486319274929 0.9996787043150 -79.80669211340 0.9996787043150 -79.80669211340 0.0252138592383 21.883537674727
8.683300000000001 0.0252121228863 -1.487879701607 0.9996787222193 -79.80766209557 0.9996787222193 -79.80766209557 0.0252131321340 21.883159460359
8.683400000000001 0.0252113942202 -1.489440937947 0.9996787401581 -79.80863215981 0.9996787401581 -79.80863215981 0.0252124036282 21.882781896002
8.683500000000000 0.0252106641491 -1.491002985934 0.9996787581315 -79.80960230628 0.9996787581315 -79.80960230628 0.0252116737178 21.882404983004
8.683600000000000 0.0252099326716 -1.492565846272 0.9996787761393 -79.81057253508 0.9996787761393 -79.81057253508 0.0252109424013 21.882028722474
8.683700000000000 0.0252091997788 -1.494129524334 0.9996787941820 -79.81154284672 0.9996787941820 -79.81154284672 0.0252102096700 21.881653118058
8.683800000000000 0.0252084654724 -1.495694019315 0.9996788122594 -79.81251324111 0.9996788122594 -79.81251324111 0.0252094755255 21.881278169332
8.683900000000001 0.0252077297460 -1.497259334524 0.9996788303716 -79.81348371862 0.9996788303716 -79.81348371862 0.0252087399613 21.880903879723
8.684000000000001 0.0252069925985 -1.498825471209 0.9996788485187 -79.81445427932 0.9996788485187 -79.81445427932 0.0252080029765 21.880530249282
8.684100000000001 0.0252062540227 -1.500392433697 0.9996788667011 -79.81542492363 0.9996788667011 -79.81542492363 0.0252072645637 21.880157281277
8.684200000000001 0.0252055140191 -1.501960221095 0.9996788849184 -79.81639565152 0.9996788849184 -79.81639565152 0.0252065247237 21.879784976285
8.684300000000000 0.0252047725805 -1.503528838311 0.9996789031710 -79.81736646342 0.9996789031710 -79.81736646342 0.0252057834489 21.879413337186
8.684400000000000 0.0252040297062 -1.505098285644 0.9996789214588 -79.81833735936 0.9996789214588 -79.81833735936 0.0252050407389 21.879042364505
8.684500000000000 0.0252032853905 -1.506668566167 0.9996789397820 -79.81930833968 0.9996789397820 -79.81930833968 0.0252042965880 21.878672061204
8.684600000000000 0.0252025396308 -1.508239681841 0.9996789581406 -79.82027940454 0.9996789581406 -79.82027940454 0.0252035509934 21.878302428250
8.684700000000001 0.0252017924238 -1.509811634567 0.9996789765348 -79.82125055412 0.9996789765348 -79.82125055412 0.0252028039520 21.877933467436
8.684800000000001 0.0252010437647 -1.511384427419 0.9996789949647 -79.82222178872 0.9996789949647 -79.82222178872 0.0252020554588 21.877565180875
8.684900000000001 0.0252002936511 -1.512958061483 0.9996790134303 -79.82319310847 0.9996790134303 -79.82319310847 0.0252013055116 21.877197570021
8.685000000000000 0.0251995420786 -1.514532539704 0.9996790319317 -79.82416451363 0.9996790319317 -79.82416451363 0.0252005541059 21.876830636837
8.685100000000000 0.0251987890439 -1.516107863743 0.9996790504689 -79.82513600440 0.9996790504689 -79.82513600440 0.0251998012384 21.876464383183
8.685200000000000 0.0251980345427 -1.517684036276 0.9996790690420 -79.82610758102 0.9996790690420 -79.82610758102 0.0251990469048 21.876098811053
8.685300000000000 0.0251972785740 -1.519261058501 0.9996790876513 -79.82707924357 0.9996790876513 -79.82707924357 0.0251982911041 21.875733920728
8.685400000000001 0.0251965211289 -1.520838934980 0.9996791062967 -79.82805099255 0.9996791062967 -79.82805099255 0.0251975338275 21.875369716609
8.685500000000001 0.0251957622077 -1.522417666091 0.9996791249785 -79.82902282796 0.9996791249785 -79.82902282796 0.0251967750751 21.875006198583
8.685600000000001 0.0251950018063 -1.523997253553 0.9996791436963 -79.82999475003 0.9996791436963 -79.82999475003 0.0251960148431 21.874643369231
8.685700000000001 0.0251942399201 -1.525577701058 0.9996791624506 -79.83096675904 0.9996791624506 -79.83096675904 0.0251952531265 21.874281229996
8.685800000000000 0.0251934765456 -1.527159010403 0.9996791812416 -79.83193885518 0.9996791812416 -79.83193885518 0.0251944899222 21.873919782692
8.685900000000000 0.0251927116783 -1.528741184045 0.9996792000690 -79.83291103874 0.9996792000690 -79.83291103874 0.0251937252255 21.873559029903
8.686000000000000 0.0251919453158 -1.530324223680 0.9996792189331 -79.83388330983 0.9996792189331 -79.83388330983 0.0251929590340 21.873198972563
8.686100000000000 0.0251911774534 -1.531908132074 0.9996792378340 -79.83485566876 0.9996792378340 -79.83485566876 0.0251921913430 21.872839613054
8.686200000000001 0.0251904080873 -1.533492911528 0.9996792567718 -79.83582811573 0.9996792567718 -79.83582811573 0.0251914221488 21.872480953107
8.686300000000001 0.0251896372132 -1.535078564628 0.9996792757465 -79.83680065100 0.9996792757465 -79.83680065100 0.0251906514470 21.872122994920
8.686400000000001 0.0251888648299 -1.536665092234 0.9996792947583 -79.83777327464 0.9996792947583 -79.83777327464 0.0251898792364 21.871765739122
8.686500000000001 0.0251880909287 -1.538252498952 0.9996793138071 -79.83874598716 0.9996793138071 -79.83874598716 0.0251891055084 21.871409190145
8.686600000000000 0.0251873155107 -1.539840785194 0.9996793328932 -79.83971878850 0.9996793328932 -79.83971878850 0.0251883302640 21.871053346921
8.686700000000000 0.0251865385698 -1.541429953855 0.9996793520166 -79.84069167902 0.9996793520166 -79.84069167902 0.0251875534971 21.870698212897
8.686800000000000 0.0251857601009 -1.543020007949 0.9996793711773 -79.84166465901 0.9996793711773 -79.84166465901 0.0251867752027 21.870343790663
8.686900000000001 0.0251849801027 -1.544610949189 0.9996793903757 -79.84263772856 0.9996793903757 -79.84263772856 0.0251859953794 21.869990080114
8.687000000000001 0.0251841985702 -1.546202779580 0.9996794096115 -79.84361088795 0.9996794096115 -79.84361088795 0.0251852140223 21.869637084549
8.687100000000001 0.0251834154984 -1.547795502759 0.9996794288851 -79.84458413749 0.9996794288851 -79.84458413749 0.0251844311263 21.869284805828
8.687200000000001 0.0251826308845 -1.549389119896 0.9996794481963 -79.84555747733 0.9996794481963 -79.84555747733 0.0251836466886 21.868933245895
8.687300000000000 0.0251818447248 -1.550983633650 0.9996794675455 -79.84653090770 0.9996794675455 -79.84653090770 0.0251828607056 21.868582406106
8.687400000000000 0.0251810570139 -1.552579047208 0.9996794869327 -79.84750442890 0.9996794869327 -79.84750442890 0.0251820731719 21.868232289098
8.687500000000000 0.0251802677500 -1.554175361339 0.9996795063577 -79.84847804106 0.9996795063577 -79.84847804106 0.0251812840856 21.867882896346
8.687600000000000 0.0251794769276 -1.555772580212 0.9996795258212 -79.84945174449 0.9996795258212 -79.84945174449 0.0251804934412 21.867534229488
8.687700000000001 0.0251786845422 -1.557370705635 0.9996795453227 -79.85042553945 0.9996795453227 -79.85042553945 0.0251797012342 21.867186291631
8.687800000000001 0.0251778905907 -1.558969739615 0.9996795648625 -79.85139942613 0.9996795648625 -79.85139942613 0.0251789074617 21.866839084177
8.687900000000001 0.0251770950691 -1.560569685192 0.9996795844409 -79.85237340477 0.9996795844409 -79.85237340477 0.0251781121195 21.866492608515
8.688000000000001 0.0251762979742 -1.562170543850 0.9996796040578 -79.85334747555 0.9996796040578 -79.85334747555 0.0251773152044 21.866146866888
8.688100000000000 0.0251754992993 -1.563772319421 0.9996796237132 -79.85432163886 0.9996796237132 -79.85432163886 0.0251765167098 21.865801862264
8.688200000000000 0.0251746990421 -1.565375013629 0.9996796434074 -79.85529589484 0.9996796434074 -79.85529589484 0.0251757166334 21.865457595890
8.688300000000000 0.0251738971976 -1.566978629503 0.9996796631405 -79.85627024379 0.9996796631405 -79.85627024379 0.0251749149701 21.865114069972
8.688400000000000 0.0251730937637 -1.568583168288 0.9996796829124 -79.85724468584 0.9996796829124 -79.85724468584 0.0251741117179 21.864771285875
8.688500000000001 0.0251722887347 -1.570188633371 0.9996797027233 -79.85821922130 0.9996797027233 -79.85821922130 0.0251733068710 21.864429246220
8.688600000000001 0.0251714821070 -1.571795026627 0.9996797225731 -79.85919385040 0.9996797225731 -79.85919385040 0.0251725004259 21.864087953126
8.688700000000001 0.0251706738745 -1.573402352302 0.9996797424624 -79.86016857350 0.9996797424624 -79.86016857350 0.0251716923765 21.863747408919
8.688800000000001 0.0251698640364 -1.575010610703 0.9996797623909 -79.86114339064 0.9996797623909 -79.86114339064 0.0251708827219 21.863407614465
8.688900000000000 0.0251690525851 -1.576619806254 0.9996797823588 -79.86211830227 0.9996797823588 -79.86211830227 0.0251700714546 21.863068573304
8.689000000000000 0.0251682395197 -1.578229939996 0.9996798023662 -79.86309330844 0.9996798023662 -79.86309330844 0.0251692585737 21.862730285749
8.689100000000000 0.0251674248332 -1.579841015435 0.9996798224132 -79.86406840957 0.9996798224132 -79.86406840957 0.0251684440721 21.862392755714
8.689200000000001 0.0251666085230 -1.581453034681 0.9996798424999 -79.86504360581 0.9996798424999 -79.86504360581 0.0251676279473 21.862055984104
8.689300000000001 0.0251657905849 -1.583065999979 0.9996798626263 -79.86601889740 0.9996798626263 -79.86601889740 0.0251668101951 21.861719973289
8.689400000000001 0.0251649710132 -1.584679915065 0.9996798827927 -79.86699428468 0.9996798827927 -79.86699428468 0.0251659908098 21.861384725601
8.689500000000001 0.0251641498054 -1.586294781251 0.9996799029991 -79.86796976779 0.9996799029991 -79.86796976779 0.0251651697888 21.861050242641
8.689600000000000 0.0251633269553 -1.587910602033 0.9996799232454 -79.86894534711 0.9996799232454 -79.86894534711 0.0251643471261 21.860716527631
8.689700000000000 0.0251625024616 -1.589527379264 0.9996799435322 -79.86992102271 0.9996799435322 -79.86992102271 0.0251635228201 21.860383580469
8.689800000000000 0.0251616763167 -1.591145116445 0.9996799638592 -79.87089679504 0.9996799638592 -79.87089679504 0.0251626968634 21.860051405512
8.689900000000000 0.0251608485179 -1.592763815508 0.9996799842266 -79.87187266424 0.9996799842266 -79.87187266424 0.0251618692535 21.859720003972
8.690000000000001 0.0251600190608 -1.594383479238 0.9996800046344 -79.87284863059 0.9996800046344 -79.87284863059 0.0251610399856 21.859389378080
8.690100000000001 0.0251591879405 -1.596004110436 0.9996800250828 -79.87382469438 0.9996800250828 -79.87382469438 0.0251602090550 21.859059530291
8.690200000000001 0.0251583551522 -1.597625712336 0.9996800455720 -79.87480085588 0.9996800455720 -79.87480085588 0.0251593764569 21.858730462501
8.690300000000001 0.0251575206923 -1.599248286556 0.9996800661019 -79.87577711530 0.9996800661019 -79.87577711530 0.0251585421878 21.858402177160
8.690400000000000 0.0251566845564 -1.600871836371 0.9996800866728 -79.87675347291 0.9996800866728 -79.87675347291 0.0251577062431 21.858074675891
8.690500000000000 0.0251558467414 -1.602496363626 0.9996801072847 -79.87772992889 0.9996801072847 -79.87772992889 0.0251568686198 21.857747960419
8.690600000000000 0.0251550072407 -1.604121871900 0.9996801279377 -79.87870648362 0.9996801279377 -79.87870648362 0.0251560293112 21.857422034200
8.690700000000001 0.0251541660499 -1.605748363967 0.9996801486319 -79.87968313736 0.9996801486319 -79.87968313736 0.0251551883132 21.857096899153
8.690800000000001 0.0251533231639 -1.607375843468 0.9996801693676 -79.88065989043 0.9996801693676 -79.88065989043 0.0251543456203 21.856772557421
8.690900000000001 0.0251524785821 -1.609004310056 0.9996801901445 -79.88163674284 0.9996801901445 -79.88163674284 0.0251535012321 21.856449010294
8.691000000000001 0.0251516322971 -1.610633768795 0.9996802109631 -79.88261369504 0.9996802109631 -79.88261369504 0.0251526551412 21.856126260561
8.691100000000000 0.0251507843036 -1.612264222490 0.9996802318234 -79.88359074733 0.9996802318234 -79.88359074733 0.0251518073425 21.855804311051
8.691200000000000 0.0251499345988 -1.613895672976 0.9996802527253 -79.88456789989 0.9996802527253 -79.88456789989 0.0251509578328 21.855483163407
8.691300000000000 0.0251490831772 -1.615528123646 0.9996802736691 -79.88554515304 0.9996802736691 -79.88554515304 0.0251501066068 21.855162820152
8.691400000000000 0.0251482300341 -1.617161577028 0.9996802946549 -79.88652250704 0.9996802946549 -79.88652250704 0.0251492536600 21.854843283718
8.691500000000001 0.0251473751669 -1.618796035536 0.9996803156828 -79.88749996207 0.9996803156828 -79.88749996207 0.0251483989895 21.854524555021
8.691600000000001 0.0251465185667 -1.620431503558 0.9996803367528 -79.88847751863 0.9996803367528 -79.88847751863 0.0251475425865 21.854206638904
8.691700000000001 0.0251456602333 -1.622067981766 0.9996803578651 -79.88945517674 0.9996803578651 -79.88945517674 0.0251466844508 21.853889535322
8.691800000000001 0.0251448001605 -1.623705474113 0.9996803790199 -79.89043293677 0.9996803790199 -79.89043293677 0.0251458245762 21.853573247223
8.691900000000000 0.0251439383426 -1.625343983551 0.9996804002171 -79.89141079904 0.9996804002171 -79.89141079904 0.0251449629571 21.853257777502
8.692000000000000 0.0251430747759 -1.626983512479 0.9996804214569 -79.89238876379 0.9996804214569 -79.89238876379 0.0251440995897 21.852943128164
8.692100000000000 0.0251422094564 -1.628624063744 0.9996804427395 -79.89336683125 0.9996804427395 -79.89336683125 0.0251432344699 21.852629300892
8.692200000000000 0.0251413423783 -1.630265640521 0.9996804640650 -79.89434500175 0.9996804640650 -79.89434500175 0.0251423675921 21.852316298625
8.692300000000001 0.0251404735354 -1.631908246507 0.9996804854334 -79.89532327565 0.9996804854334 -79.89532327565 0.0251414989500 21.852004124379
8.692400000000001 0.0251396029269 -1.633551882634 0.9996805068449 -79.89630165302 0.9996805068449 -79.89630165302 0.0251406285428 21.851692778579
8.692500000000001 0.0251387305449 -1.635196553081 0.9996805282995 -79.89728013430 0.9996805282995 -79.89728013430 0.0251397563627 21.851382265392
8.692600000000001 0.0251378563858 -1.636842260469 0.9996805497975 -79.89825871973 0.9996805497975 -79.89825871973 0.0251388824060 21.851072586394
8.692700000000000 0.0251369804453 -1.638489007315 0.9996805713387 -79.89923740954 0.9996805713387 -79.89923740954 0.0251380066684 21.850763743744
8.692800000000000 0.0251361027166 -1.640136797571 0.9996805929235 -79.90021620414 0.9996805929235 -79.90021620414 0.0251371291432 21.850455740765
8.692900000000000 0.0251352231957 -1.641785633835 0.9996806145520 -79.90119510376 0.9996806145520 -79.90119510376 0.0251362498263 21.850148579466
8.693000000000001 0.0251343418798 -1.643435518108 0.9996806362242 -79.90217410856 0.9996806362242 -79.90217410856 0.0251353687149 21.849842261132
8.693100000000001 0.0251334587619 -1.645086454309 0.9996806579402 -79.90315321897 0.9996806579402 -79.90315321897 0.0251344858020 21.849536789357
8.693200000000001 0.0251325738369 -1.646738445593 0.9996806797003 -79.90413243528 0.9996806797003 -79.90413243528 0.0251336010825 21.849232166552
8.693300000000001 0.0251316871022 -1.648391493473 0.9996807015043 -79.90511175764 0.9996807015043 -79.90511175764 0.0251327145540 21.848928394325
8.693400000000000 0.0251307985499 -1.650045603003 0.9996807233527 -79.90609118652 0.9996807233527 -79.90609118652 0.0251318262083 21.848625476062
8.693500000000000 0.0251299081764 -1.651700775922 0.9996807452452 -79.90707072213 0.9996807452452 -79.90707072213 0.0251309360420 21.848323414126
8.693600000000000 0.0251290159769 -1.653357015668 0.9996807671823 -79.90805036475 0.9996807671823 -79.90805036475 0.0251300440503 21.848022210344
8.693700000000000 0.0251281219474 -1.655014324361 0.9996807891637 -79.90903011462 0.9996807891637 -79.90903011462 0.0251291502291 21.847721867229
8.693800000000001 0.0251272260813 -1.656672706403 0.9996808111900 -79.91000997212 0.9996808111900 -79.91000997212 0.0251282545718 21.847422387527
8.693900000000001 0.0251263283736 -1.658332164293 0.9996808332610 -79.91098993756 0.9996808332610 -79.91098993756 0.0251273570735 21.847123774124
8.694000000000001 0.0251254288201 -1.659992700904 0.9996808553769 -79.91197001116 0.9996808553769 -79.91197001116 0.0251264577300 21.846826028903
8.694100000000001 0.0251245274145 -1.661654320145 0.9996808775378 -79.91295019333 0.9996808775378 -79.91295019333 0.0251255565348 21.846529154962
8.694200000000000 0.0251236241548 -1.663317023210 0.9996808997438 -79.91393048415 0.9996808997438 -79.91393048415 0.0251246534861 21.846233153482
8.694300000000000 0.0251227190320 -1.664980815494 0.9996809219952 -79.91491088417 0.9996809219952 -79.91491088417 0.0251237485749 21.845938028652
8.694400000000000 0.0251218120432 -1.666645698346 0.9996809442917 -79.91589139355 0.9996809442917 -79.91589139355 0.0251228417984 21.845643782453
8.694500000000000 0.0251209031830 -1.668311676173 0.9996809666339 -79.91687201262 0.9996809666339 -79.91687201262 0.0251219331509 21.845350416735
8.694600000000001 0.0251199924464 -1.669978751173 0.9996809890217 -79.91785274167 0.9996809890217 -79.91785274167 0.0251210226276 21.845057934585
8.694700000000001 0.0251190798274 -1.671646927102 0.9996810114552 -79.91883358105 0.9996810114552 -79.91883358105 0.0251201102225 21.844766338842
8.694800000000001 0.0251181653228 -1.673316206098 0.9996810339345 -79.91981453095 0.9996810339345 -79.91981453095 0.0251191959322 21.844475631229
8.694900000000001 0.0251172489243 -1.674986592975 0.9996810564598 -79.92079559186 0.9996810564598 -79.92079559186 0.0251182797487 21.844185815683
8.695000000000000 0.0251163306287 -1.676658090082 0.9996810790312 -79.92177676396 0.9996810790312 -79.92177676396 0.0251173616686 21.843896893700
8.695100000000000 0.0251154104303 -1.678330700711 0.9996811016489 -79.92275804760 0.9996811016489 -79.92275804760 0.0251164416864 21.843608868150
8.695200000000000 0.0251144883255 -1.680004426927 0.9996811243128 -79.92373944297 0.9996811243128 -79.92373944297 0.0251155197983 21.843321741205
8.695300000000001 0.0251135643056 -1.681679274228 0.9996811470233 -79.92472095061 0.9996811470233 -79.92472095061 0.0251145959956 21.843035516684
8.695400000000001 0.0251126383686 -1.683355243751 0.9996811697803 -79.92570257062 0.9996811697803 -79.92570257062 0.0251136702765 21.842750195901
8.695500000000001 0.0251117105052 -1.685032340670 0.9996811925839 -79.92668430354 0.9996811925839 -79.92668430354 0.0251127426316 21.842465783605
8.695600000000001 0.0251107807154 -1.686710566057 0.9996812154344 -79.92766614939 0.9996812154344 -79.92766614939 0.0251118130608 21.842182279396
8.695700000000000 0.0251098489897 -1.688389925397 0.9996812383321 -79.92864810872 0.9996812383321 -79.92864810872 0.0251108815547 21.841899687763
8.695800000000000 0.0251089153251 -1.690070419962 0.9996812612767 -79.92963018171 0.9996812612767 -79.92963018171 0.0251099481103 21.841618011121
8.695900000000000 0.0251079797143 -1.691752054484 0.9996812842684 -79.93061236878 0.9996812842684 -79.93061236878 0.0251090127202 21.841337252564
8.696000000000000 0.0251070421525 -1.693434832151 0.9996813073077 -79.93159467022 0.9996813073077 -79.93159467022 0.0251080753798 21.841057414236
8.696100000000001 0.0251061026352 -1.695118755608 0.9996813303943 -79.93257708629 0.9996813303943 -79.93257708629 0.0251071360845 21.840778498735
8.696200000000001 0.0251051611551 -1.696803828803 0.9996813535284 -79.93355961743 0.9996813535284 -79.93355961743 0.0251061948269 21.840500509943
8.696300000000001 0.0251042177087 -1.698490054767 0.9996813767104 -79.93454226383 0.9996813767104 -79.93454226383 0.0251052516037 21.840223448847
8.696400000000001 0.0251032722893 -1.700177436693 0.9996813999401 -79.93552502590 0.9996813999401 -79.93552502590 0.0251043064080 21.839947319724
8.696500000000000 0.0251023248934 -1.701865977949 0.9996814232180 -79.93650790384 0.9996814232180 -79.93650790384 0.0251033592364 21.839672123235
8.696600000000000 0.0251013755118 -1.703555682930 0.9996814465438 -79.93749089819 0.9996814465438 -79.93749089819 0.0251024100798 21.839397864812
8.696700000000000 0.0251004241406 -1.705246554198 0.9996814699178 -79.93847400918 0.9996814699178 -79.93847400918 0.0251014589342 21.839124546315
8.696800000000001 0.0250994707763 -1.706938594888 0.9996814933404 -79.93945723701 0.9996814933404 -79.93945723701 0.0251005057961 21.838852168820
8.696900000000001 0.0250985154107 -1.708631809081 0.9996815168114 -79.94044058218 0.9996815168114 -79.94044058218 0.0250995506572 21.838580737115
8.697000000000001 0.0250975580390 -1.710326199618 0.9996815403309 -79.94142404495 0.9996815403309 -79.94142404495 0.0250985935129 21.838310253699
8.697100000000001 0.0250965986557 -1.712021770892 0.9996815638994 -79.94240762567 0.9996815638994 -79.94240762567 0.0250976343575 21.838040720476
8.697200000000000 0.0250956372543 -1.713718525552 0.9996815875166 -79.94339132469 0.9996815875166 -79.94339132469 0.0250966731848 21.837772141566
8.697300000000000 0.0250946738306 -1.715416467069 0.9996816111828 -79.94437514229 0.9996816111828 -79.94437514229 0.0250957099904 21.837504518720
8.697400000000000 0.0250937083773 -1.717115599897 0.9996816348983 -79.94535907888 0.9996816348983 -79.94535907888 0.0250947447668 21.837237855309
8.697500000000000 0.0250927408899 -1.718815926760 0.9996816586632 -79.94634313473 0.9996816586632 -79.94634313473 0.0250937775099 21.836972153637
8.697600000000001 0.0250917713627 -1.720517450341 0.9996816824772 -79.94732731017 0.9996816824772 -79.94732731017 0.0250928082139 21.836707417439
8.697700000000001 0.0250907997886 -1.722220176082 0.9996817063409 -79.94831160563 0.9996817063409 -79.94831160563 0.0250918368714 21.836443649171
8.697800000000001 0.0250898261631 -1.723924106337 0.9996817302544 -79.94929602137 0.9996817302544 -79.94929602137 0.0250908634782 21.836180851431
8.697900000000001 0.0250888504805 -1.725629244245 0.9996817542175 -79.95028055771 0.9996817542175 -79.95028055771 0.0250898880286 21.835919027458
8.698000000000000 0.0250878727333 -1.727335595103 0.9996817782308 -79.95126521511 0.9996817782308 -79.95126521511 0.0250889105150 21.835658180203
8.698100000000000 0.0250868929159 -1.729043161788 0.9996818022942 -79.95224999390 0.9996818022942 -79.95224999390 0.0250879309319 21.835398313041
8.698200000000000 0.0250859110230 -1.730751947629 0.9996818264077 -79.95323489438 0.9996818264077 -79.95323489438 0.0250869492739 21.835139428608
8.698300000000000 0.0250849270492 -1.732461956433 0.9996818505718 -79.95421991688 0.9996818505718 -79.95421991688 0.0250859655355 21.834881529171
8.698400000000001 0.0250839409886 -1.734173190793 0.9996818747861 -79.95520506174 0.9996818747861 -79.95520506174 0.0250849797111 21.834624618658
8.698500000000001 0.0250829528362 -1.735885654902 0.9996818990512 -79.95619032925 0.9996818990512 -79.95619032925 0.0250839917956 21.834368698605
8.698600000000001 0.0250819625835 -1.737599353746 0.9996819233672 -79.95717571992 0.9996819233672 -79.95717571992 0.0250830017802 21.834113773306
8.698700000000001 0.0250809702251 -1.739314290107 0.9996819477341 -79.95816123407 0.9996819477341 -79.95816123407 0.0250820096599 21.833859845936
8.698800000000000 0.0250799757552 -1.741030467433 0.9996819721519 -79.95914687202 0.9996819721519 -79.95914687202 0.0250810154289 21.833606919438
8.698900000000000 0.0250789791694 -1.742747889547 0.9996819966211 -79.96013263406 0.9996819966211 -79.96013263406 0.0250800190824 21.833354995432
8.699000000000000 0.0250779804592 -1.744466560454 0.9996820211416 -79.96111852066 0.9996820211416 -79.96111852066 0.0250790206123 21.833104078757
8.699100000000001 0.0250769796202 -1.746186483786 0.9996820457136 -79.96210453210 0.9996820457136 -79.96210453210 0.0250780200140 21.832854171092
8.699200000000001 0.0250759766446 -1.747907663550 0.9996820703372 -79.96309066884 0.9996820703372 -79.96309066884 0.0250770172798 21.832605276876
8.699300000000001 0.0250749715277 -1.749630103190 0.9996820950127 -79.96407693114 0.9996820950127 -79.96407693114 0.0250760124049 21.832357398180
8.699400000000001 0.0250739642645 -1.751353805562 0.9996821197400 -79.96506331931 0.9996821197400 -79.96506331931 0.0250750053844 21.832110537602
8.699500000000000 0.0250729548448 -1.753078777185 0.9996821445195 -79.96604983394 0.9996821445195 -79.96604983394 0.0250739962080 21.831864699937
8.699600000000000 0.0250719432660 -1.754805019266 0.9996821693512 -79.96703647519 0.9996821693512 -79.96703647519 0.0250729848733 21.831619886859
8.699700000000000 0.0250709295194 -1.756532537433 0.9996821942353 -79.96802324356 0.9996821942353 -79.96802324356 0.0250719713714 21.831376102511
8.699800000000000 0.0250699136020 -1.758261333149 0.9996822191717 -79.96901013924 0.9996822191717 -79.96901013924 0.0250709556994 21.831133348967
8.699900000000001 0.0250688955027 -1.759991413742 0.9996822441609 -79.96999716289 0.9996822441609 -79.96999716289 0.0250699378461 21.830891630941
8.700000000000001 0.0250678752215 -1.761722779162 0.9996822692029 -79.97098431449 0.9996822692029 -79.97098431449 0.0250689178117 21.830650948982