! Sonnet Data File
! From: emgraph Version : 16.52
! From Project: 171117_Xmon_fullysym
! Data is De-embedded 
! Data File Written: 11/26/2017 17:14:23
!< HDATE 11/22/2017 16:48:52
!< MDATE 11/23/2017 10:16:42
!< PARAMS
!< Lj = 11.0
!< Gap = 1.0
!< Pwid = 2000.0
!< Airgap = 6.0
!< Width = 10.0
!< Lj1 = 10.25
!< END PARAMS
# GHZ S MA R 50.90000
8.680000000000000 0.0251711294480 -1.466600337222 0.9996797673545 -79.77943666964 0.9996797673530 -79.77943666952 0.0251721362937 21.918325151916
!< P1 F=8.68 Eeff=(6.44843488 -2.9797e-5) Z0=(50.9086135 1.17022e-4) R=0.0 C=0.0 
!< P2 F=8.68 Eeff=(6.44843488 -2.9797e-5) Z0=(50.9086135 1.17022e-4) R=0.0 C=0.0 
8.680100000000001 0.0251704338900 -1.468142178124 0.9996797844486 -79.78040479391 0.9996797844486 -79.78040479391 0.0251714408795 21.917931902395
8.680200000000001 0.0251697370753 -1.469684741911 0.9996798015731 -79.78137299181 0.9996798015731 -79.78137299181 0.0251707442104 21.917539239067
8.680300000000001 0.0251690389971 -1.471228037694 0.9996798187284 -79.78234126363 0.9996798187284 -79.78234126363 0.0251700462784 21.917147164631
8.680400000000001 0.0251683396524 -1.472772068294 0.9996798359151 -79.78330960956 0.9996798359151 -79.78330960956 0.0251693470800 21.916755679900
8.680500000000000 0.0251676390374 -1.474316835469 0.9996798531330 -79.78427802984 0.9996798531330 -79.78427802984 0.0251686466118 21.916364787055
8.680600000000000 0.0251669371492 -1.475862340749 0.9996798703821 -79.78524652461 0.9996798703821 -79.78524652461 0.0251679448707 21.915974487742
8.680700000000000 0.0251662339857 -1.477408586125 0.9996798876626 -79.78621509402 0.9996798876626 -79.78621509402 0.0251672418546 21.915584782428
8.680800000000001 0.0251655295431 -1.478955573216 0.9996799049745 -79.78718373828 0.9996799049745 -79.78718373828 0.0251665375598 21.915195673546
8.680900000000001 0.0251648238187 -1.480503303906 0.9996799223179 -79.78815245756 0.9996799223179 -79.78815245756 0.0251658319835 21.914807162226
8.681000000000001 0.0251641168101 -1.482051779540 0.9996799396928 -79.78912125198 0.9996799396928 -79.78912125198 0.0251651251236 21.914419249732
8.681100000000001 0.0251634085144 -1.483601002213 0.9996799570993 -79.79009012173 0.9996799570993 -79.79009012173 0.0251644169768 21.914031937312
8.681200000000000 0.0251626989262 -1.485150974898 0.9996799745376 -79.79105906712 0.9996799745376 -79.79105906712 0.0251637075378 21.913645227659
8.681300000000000 0.0251619880449 -1.486701697996 0.9996799920077 -79.79202808818 0.9996799920077 -79.79202808818 0.0251629968061 21.913259121171
8.681400000000000 0.0251612758664 -1.488253174394 0.9996800095097 -79.79299718518 0.9996800095097 -79.79299718518 0.0251622847775 21.912873619590
8.681500000000000 0.0251605623864 -1.489805405951 0.9996800270435 -79.79396635833 0.9996800270435 -79.79396635833 0.0251615714479 21.912488725379
8.681600000000001 0.0251598476048 -1.491358393144 0.9996800446093 -79.79493560766 0.9996800446093 -79.79493560766 0.0251608568171 21.912104438589
8.681700000000001 0.0251591315155 -1.492912139888 0.9996800622073 -79.79590493353 0.9996800622073 -79.79590493353 0.0251601408788 21.911720761807
8.681800000000001 0.0251584141183 -1.494466646127 0.9996800798374 -79.79687433596 0.9996800798374 -79.79687433596 0.0251594236330 21.911337695583
8.681900000000001 0.0251576954068 -1.496021915356 0.9996800974996 -79.79784381530 0.9996800974996 -79.79784381530 0.0251587050733 21.910955243004
8.682000000000000 0.0251569753793 -1.497577949371 0.9996801151944 -79.79881337167 0.9996801151944 -79.79881337167 0.0251579851980 21.910573404325
8.682100000000000 0.0251562540334 -1.499134748602 0.9996801329212 -79.79978300520 0.9996801329212 -79.79978300520 0.0251572640047 21.910192181900
8.682200000000000 0.0251555313655 -1.500692316166 0.9996801506806 -79.80075271611 0.9996801506806 -79.80075271611 0.0251565414897 21.909811576477
8.682300000000000 0.0251548073721 -1.502250653945 0.9996801684725 -79.80172250461 0.9996801684725 -79.80172250461 0.0251558176495 21.909431590084
8.682400000000001 0.0251540820502 -1.503809763560 0.9996801862970 -79.80269237087 0.9996801862970 -79.80269237087 0.0251550924813 21.909052224286
8.682500000000001 0.0251533553962 -1.505369647284 0.9996802041542 -79.80366231509 0.9996802041542 -79.80366231509 0.0251543659814 21.908673480733
8.682600000000001 0.0251526274075 -1.506930306608 0.9996802220440 -79.80463233744 0.9996802220440 -79.80463233744 0.0251536381471 21.908295360956
8.682700000000001 0.0251518980811 -1.508491743733 0.9996802399668 -79.80560243810 0.9996802399668 -79.80560243810 0.0251529089755 21.907917866060
8.682800000000000 0.0251511674120 -1.510053961311 0.9996802579224 -79.80657261735 0.9996802579224 -79.80657261735 0.0251521784615 21.907540998717
8.682900000000000 0.0251504354005 -1.511616959298 0.9996802759110 -79.80754287518 0.9996802759110 -79.80754287518 0.0251514466056 21.907164758893
8.683000000000000 0.0251497020393 -1.513180742316 0.9996802939327 -79.80851321202 0.9996802939327 -79.80851321202 0.0251507134002 21.906789149806
8.683100000000001 0.0251489673271 -1.514745310616 0.9996803119874 -79.80948362794 0.9996803119874 -79.80948362794 0.0251499788444 21.906414172577
8.683200000000001 0.0251482312611 -1.516310666388 0.9996803300754 -79.81045412311 0.9996803300754 -79.81045412311 0.0251492429351 21.906039828298
8.683300000000001 0.0251474938365 -1.517876812447 0.9996803481967 -79.81142469782 0.9996803481967 -79.81142469782 0.0251485056675 21.905666119316
8.683400000000001 0.0251467550506 -1.519443750341 0.9996803663514 -79.81239535222 0.9996803663514 -79.81239535222 0.0251477670391 21.905293047086
8.683500000000000 0.0251460149004 -1.521011481987 0.9996803845395 -79.81336608648 0.9996803845395 -79.81336608648 0.0251470270467 21.904920612938
8.683600000000000 0.0251452733847 -1.522580008021 0.9996804027610 -79.81433690068 0.9996804027610 -79.81433690068 0.0251462856892 21.904548817898
8.683700000000000 0.0251445304950 -1.524149333683 0.9996804210162 -79.81530779532 0.9996804210162 -79.81530779532 0.0251455429581 21.904177665555
8.683800000000000 0.0251437862328 -1.525719458160 0.9996804393051 -79.81627877031 0.9996804393051 -79.81627877031 0.0251447988549 21.903807155455
8.683900000000001 0.0251430405920 -1.527290384655 0.9996804576276 -79.81724982601 0.9996804576276 -79.81724982601 0.0251440533735 21.903437290899
8.684000000000001 0.0251422935718 -1.528862114331 0.9996804759839 -79.81822096246 0.9996804759839 -79.81822096246 0.0251433065130 21.903068071934
8.684100000000001 0.0251415451651 -1.530434651400 0.9996804943744 -79.81919218009 0.9996804943744 -79.81919218009 0.0251425582664 21.902699501750
8.684200000000001 0.0251407953725 -1.532007994963 0.9996805127986 -79.82016347885 0.9996805127986 -79.82016347885 0.0251418086345 21.902331580871
8.684300000000000 0.0251400441870 -1.533582149770 0.9996805312570 -79.82113485917 0.9996805312570 -79.82113485917 0.0251410576099 21.901964312074
8.684400000000000 0.0251392916082 -1.535157116095 0.9996805497495 -79.82210632107 0.9996805497495 -79.82210632107 0.0251403051924 21.901597695881
8.684500000000000 0.0251385376303 -1.536732896932 0.9996805682762 -79.82307786487 0.9996805682762 -79.82307786487 0.0251395513763 21.901231735164
8.684600000000000 0.0251377822512 -1.538309494114 0.9996805868373 -79.82404949072 0.9996805868373 -79.82404949072 0.0251387961593 21.900866430823
8.684700000000001 0.0251370254675 -1.539886909501 0.9996806054327 -79.82502119881 0.9996806054327 -79.82502119881 0.0251380395382 21.900501784596
8.684800000000001 0.0251362672747 -1.541465146051 0.9996806240627 -79.82599298940 0.9996806240627 -79.82599298940 0.0251372815083 21.900137798528
8.684900000000001 0.0251355076706 -1.543044204785 0.9996806427271 -79.82696486262 0.9996806427271 -79.82696486262 0.0251365220675 21.899774474016
8.685000000000000 0.0251347466508 -1.544624088569 0.9996806614263 -79.82793681874 0.9996806614263 -79.82793681874 0.0251357612115 21.899411812981
8.685100000000000 0.0251339842124 -1.546204799002 0.9996806801601 -79.82890885792 0.9996806801601 -79.82890885792 0.0251349989372 21.899049817182
8.685200000000000 0.0251332203512 -1.547786338640 0.9996806989286 -79.82988098041 0.9996806989286 -79.82988098041 0.0251342352405 21.898688488571
8.685300000000000 0.0251324550661 -1.549368708637 0.9996807177321 -79.83085318627 0.9996807177321 -79.83085318627 0.0251334701204 21.898327827384
8.685400000000001 0.0251316883490 -1.550951913382 0.9996807365707 -79.83182547599 0.9996807365707 -79.83182547599 0.0251327035686 21.897967837880
8.685500000000001 0.0251309201998 -1.552535953289 0.9996807554442 -79.83279784957 0.9996807554442 -79.83279784957 0.0251319355851 21.897608519992
8.685600000000001 0.0251301506148 -1.554120829944 0.9996807743527 -79.83377030722 0.9996807743527 -79.83377030722 0.0251311661663 21.897249876158
8.685700000000001 0.0251293795895 -1.555706546885 0.9996807932966 -79.83474284921 0.9996807932966 -79.83474284921 0.0251303953077 21.896891907764
8.685800000000000 0.0251286071208 -1.557293105912 0.9996808122758 -79.83571547573 0.9996808122758 -79.83571547573 0.0251296230060 21.896534616574
8.685900000000000 0.0251278332041 -1.558880509393 0.9996808312903 -79.83668818704 0.9996808312903 -79.83668818704 0.0251288492566 21.896178005135
8.686000000000000 0.0251270578374 -1.560468758896 0.9996808503403 -79.83766098326 0.9996808503403 -79.83766098326 0.0251280740577 21.895822074268
8.686100000000000 0.0251262810159 -1.562057857130 0.9996808694259 -79.83863386467 0.9996808694259 -79.83863386467 0.0251272974045 21.895466826337
8.686200000000001 0.0251255027364 -1.563647806296 0.9996808885471 -79.83960683148 0.9996808885471 -79.83960683148 0.0251265192936 21.895112262954
8.686300000000001 0.0251247229944 -1.565238608880 0.9996809077040 -79.84057988392 0.9996809077040 -79.84057988392 0.0251257397207 21.894758386281
8.686400000000001 0.0251239417890 -1.566830265697 0.9996809268968 -79.84155302206 0.9996809268968 -79.84155302206 0.0251249586848 21.894405196912
8.686500000000001 0.0251231591118 -1.568422781215 0.9996809461253 -79.84252624640 0.9996809461253 -79.84252624640 0.0251241761775 21.894052699114
8.686600000000000 0.0251223749640 -1.570016155794 0.9996809653899 -79.84349955687 0.9996809653899 -79.84349955687 0.0251233922000 21.893700891858
8.686700000000000 0.0251215893397 -1.571610392245 0.9996809846906 -79.84447295381 0.9996809846906 -79.84447295381 0.0251226067464 21.893349778474
8.686800000000000 0.0251208022340 -1.573205493416 0.9996810040273 -79.84544643750 0.9996810040273 -79.84544643750 0.0251218198119 21.892999361454
8.686900000000001 0.0251200136457 -1.574801461035 0.9996810234005 -79.84642000803 0.9996810234005 -79.84642000803 0.0251210313952 21.892649640704
8.687000000000001 0.0251192235701 -1.576398296991 0.9996810428098 -79.84739366566 0.9996810428098 -79.84739366566 0.0251202414916 21.892300619401
8.687100000000001 0.0251184320022 -1.577996004815 0.9996810622557 -79.84836741069 0.9996810622557 -79.84836741069 0.0251194500961 21.891952299357
8.687200000000001 0.0251176389396 -1.579594585546 0.9996810817379 -79.84934124327 0.9996810817379 -79.84934124327 0.0251186572064 21.891604682423
8.687300000000000 0.0251168443787 -1.581194041861 0.9996811012568 -79.85031516360 0.9996811012568 -79.85031516360 0.0251178628188 21.891257769926
8.687400000000000 0.0251160483144 -1.582794376717 0.9996811208124 -79.85128917199 0.9996811208124 -79.85128917199 0.0251170669283 21.890911564379
8.687500000000000 0.0251152507448 -1.584395590924 0.9996811404046 -79.85226326854 0.9996811404046 -79.85226326854 0.0251162695329 21.890566067250
8.687600000000000 0.0251144516649 -1.585997688487 0.9996811600339 -79.85323745356 0.9996811600340 -79.85323745356 0.0251154706275 21.890221280072
8.687700000000001 0.0251136510703 -1.587600671104 0.9996811797001 -79.85421172729 0.9996811797001 -79.85421172729 0.0251146702079 21.889877205886
8.687800000000001 0.0251128489580 -1.589204540763 0.9996811994032 -79.85518608992 0.9996811994032 -79.85518608992 0.0251138682712 21.889533846005
8.687900000000001 0.0251120453244 -1.590809300349 0.9996812191436 -79.85616054166 0.9996812191436 -79.85616054166 0.0251130648134 21.889191201791
8.688000000000001 0.0251112401661 -1.592414951289 0.9996812389212 -79.85713508271 0.9996812389212 -79.85713508271 0.0251122598315 21.888849275399
8.688100000000000 0.0251104334771 -1.594021497303 0.9996812587360 -79.85810971342 0.9996812587360 -79.85810971342 0.0251114533193 21.888508069703
8.688200000000000 0.0251096252550 -1.595628940033 0.9996812785882 -79.85908443393 0.9996812785882 -79.85908443393 0.0251106452744 21.888167585891
8.688300000000000 0.0251088154950 -1.597237282391 0.9996812984780 -79.86005924453 0.9996812984780 -79.86005924453 0.0251098356921 21.887827826106
8.688400000000000 0.0251080041953 -1.598846525523 0.9996813184053 -79.86103414532 0.9996813184053 -79.86103414532 0.0251090245705 21.887488791631
8.688500000000001 0.0251071913502 -1.600456672784 0.9996813383703 -79.86200913663 0.9996813383703 -79.86200913663 0.0251082119040 21.887150485031
8.688600000000001 0.0251063769565 -1.602067725948 0.9996813583730 -79.86298421866 0.9996813583730 -79.86298421866 0.0251073976893 21.886812908344
8.688700000000001 0.0251055610083 -1.603679689056 0.9996813784136 -79.86395939176 0.9996813784136 -79.86395939176 0.0251065819205 21.886476063814
8.688800000000001 0.0251047435048 -1.605292562458 0.9996813984922 -79.86493465596 0.9996813984922 -79.86493465596 0.0251057645970 21.886139952260
8.688900000000000 0.0251039244390 -1.606906350350 0.9996814186088 -79.86591001169 0.9996814186088 -79.86591001169 0.0251049457115 21.885804577082
8.689000000000000 0.0251031038098 -1.608521053800 0.9996814387636 -79.86688545901 0.9996814387636 -79.86688545901 0.0251041252631 21.885469938626
8.689100000000000 0.0251022816105 -1.610136676153 0.9996814589566 -79.86786099830 0.9996814589566 -79.86786099830 0.0251033032451 21.885136040654
8.689200000000001 0.0251014578388 -1.611753219393 0.9996814791880 -79.86883662971 0.9996814791880 -79.86883662971 0.0251024796551 21.884802884004
8.689300000000001 0.0251006324905 -1.613370685768 0.9996814994576 -79.86981235348 0.9996814994576 -79.86981235348 0.0251016544890 21.884470471010
8.689400000000001 0.0250998055604 -1.614989078846 0.9996815197660 -79.87078816993 0.9996815197660 -79.87078816993 0.0251008277415 21.884138803914
8.689500000000001 0.0250989770460 -1.616608399847 0.9996815401128 -79.87176407919 0.9996815401128 -79.87176407919 0.0250999994102 21.883807884222
8.689600000000000 0.0250981469414 -1.618228652146 0.9996815604983 -79.87274008161 0.9996815604983 -79.87274008161 0.0250991694893 21.883477715048
8.689700000000000 0.0250973152454 -1.619849837523 0.9996815809228 -79.87371617727 0.9996815809228 -79.87371617727 0.0250983379772 21.883148296325
8.689800000000000 0.0250964819508 -1.621471959382 0.9996816013861 -79.87469236659 0.9996816013861 -79.87469236659 0.0250975048671 21.882819632236
8.689900000000000 0.0250956470550 -1.623095019577 0.9996816218884 -79.87566864972 0.9996816218884 -79.87566864972 0.0250966701562 21.882491723960
8.690000000000001 0.0250948105537 -1.624719020748 0.9996816424298 -79.87664502692 0.9996816424298 -79.87664502692 0.0250958338403 21.882164573631
8.690100000000001 0.0250939724422 -1.626343965633 0.9996816630103 -79.87762149845 0.9996816630103 -79.87762149845 0.0250949959148 21.881838183625
8.690200000000001 0.0250931327162 -1.627969857325 0.9996816836303 -79.87859806459 0.9996816836303 -79.87859806459 0.0250941563751 21.881512555793
8.690300000000001 0.0250922913721 -1.629596697369 0.9996817042894 -79.87957472552 0.9996817042894 -79.87957472552 0.0250933152179 21.881187692450
8.690400000000000 0.0250914484058 -1.631224488932 0.9996817249882 -79.88055148151 0.9996817249882 -79.88055148151 0.0250924724389 21.880863595204
8.690500000000000 0.0250906038143 -1.632853233766 0.9996817457265 -79.88152833273 0.9996817457265 -79.88152833273 0.0250916280351 21.880540265688
8.690600000000000 0.0250897575911 -1.634482935346 0.9996817665044 -79.88250527954 0.9996817665044 -79.88250527954 0.0250907820003 21.880217707259
8.690700000000001 0.0250889097324 -1.636113596349 0.9996817873222 -79.88348232219 0.9996817873222 -79.88348232219 0.0250899343303 21.879895921762
8.690800000000001 0.0250880602331 -1.637745220235 0.9996818081800 -79.88445946097 0.9996818081800 -79.88445946097 0.0250890850201 21.879574911244
8.690900000000001 0.0250872090926 -1.639377806686 0.9996818290775 -79.88543669592 0.9996818290775 -79.88543669592 0.0250882340694 21.879254676975
8.691000000000001 0.0250863563040 -1.641011360585 0.9996818500153 -79.88641402744 0.9996818500153 -79.88641402744 0.0250873814709 21.878935221637
8.691100000000000 0.0250855018623 -1.642645884615 0.9996818709932 -79.88739145582 0.9996818709932 -79.88739145582 0.0250865272199 21.878616547930
8.691200000000000 0.0250846457647 -1.644281380558 0.9996818920114 -79.88836898125 0.9996818920114 -79.88836898125 0.0250856713134 21.878298657478
8.691300000000000 0.0250837880058 -1.645917851684 0.9996819130700 -79.88934660401 0.9996819130700 -79.88934660401 0.0250848137462 21.877981552700
8.691400000000000 0.0250829285815 -1.647555300395 0.9996819341690 -79.89032432437 0.9996819341690 -79.89032432437 0.0250839545140 21.877665235950
8.691500000000001 0.0250820674892 -1.649193729019 0.9996819553087 -79.89130214248 0.9996819553087 -79.89130214248 0.0250830936143 21.877349708062
8.691600000000001 0.0250812047203 -1.650833141778 0.9996819764890 -79.89228005883 0.9996819764890 -79.89228005883 0.0250822310385 21.877034973752
8.691700000000001 0.0250803402747 -1.652473539366 0.9996819977101 -79.89325807344 0.9996819977101 -79.89325807344 0.0250813667865 21.876721033013
8.691800000000001 0.0250794741464 -1.654114925546 0.9996820189721 -79.89423618667 0.9996820189721 -79.89423618667 0.0250805008522 21.876407888618
8.691900000000000 0.0250786063302 -1.655757303130 0.9996820402751 -79.89521439880 0.9996820402751 -79.89521439880 0.0250796332306 21.876095543376
8.692000000000000 0.0250777368223 -1.657400674490 0.9996820616192 -79.89619271007 0.9996820616192 -79.89619271007 0.0250787639179 21.875783999246
8.692100000000000 0.0250768656190 -1.659045042314 0.9996820830045 -79.89717112071 0.9996820830045 -79.89717112071 0.0250778929102 21.875473257814
8.692200000000000 0.0250759927150 -1.660690409652 0.9996821044312 -79.89814963101 0.9996821044312 -79.89814963101 0.0250770202022 21.875163321915
8.692300000000001 0.0250751181042 -1.662336780087 0.9996821258992 -79.89912824134 0.9996821258992 -79.89912824134 0.0250761457880 21.874854194485
8.692400000000001 0.0250742417857 -1.663984154541 0.9996821474089 -79.90010695175 0.9996821474089 -79.90010695175 0.0250752696666 21.874545875944
8.692500000000001 0.0250733637522 -1.665632536971 0.9996821689601 -79.90108576268 0.9996821689601 -79.90108576268 0.0250743918307 21.874238370275
8.692600000000001 0.0250724840001 -1.667281929972 0.9996821905530 -79.90206467433 0.9996821905530 -79.90206467433 0.0250735122766 21.873931679050
8.692700000000000 0.0250716025255 -1.668932335878 0.9996822121878 -79.90304368693 0.9996822121878 -79.90304368693 0.0250726310007 21.873625804256
8.692800000000000 0.0250707193219 -1.670583758554 0.9996822338645 -79.90402280086 0.9996822338645 -79.90402280086 0.0250717479962 21.873320749173
8.692900000000000 0.0250698343853 -1.672236200475 0.9996822555833 -79.90500201637 0.9996822555833 -79.90500201637 0.0250708632592 21.873016515723
8.693000000000001 0.0250689477132 -1.673889663562 0.9996822773443 -79.90598133359 0.9996822773443 -79.90598133359 0.0250699767873 21.872713105134
8.693100000000001 0.0250680592989 -1.675544151609 0.9996822991475 -79.90696075293 0.9996822991475 -79.90696075293 0.0250690885736 21.872410520882
8.693200000000001 0.0250671691375 -1.677199667632 0.9996823209931 -79.90794027466 0.9996823209931 -79.90794027466 0.0250681986134 21.872108765287
8.693300000000001 0.0250662772266 -1.678856213092 0.9996823428812 -79.90891989894 0.9996823428812 -79.90891989894 0.0250673069043 21.871807839890
8.693400000000000 0.0250653835587 -1.680513792851 0.9996823648119 -79.90989962621 0.9996823648119 -79.90989962621 0.0250664134385 21.871507747976
8.693500000000000 0.0250644881303 -1.682172408568 0.9996823867853 -79.91087945666 0.9996823867853 -79.91087945666 0.0250655182129 21.871208491811
8.693600000000000 0.0250635909369 -1.683832063581 0.9996824088015 -79.91185939057 0.9996824088015 -79.91185939057 0.0250646212227 21.870910073145
8.693700000000000 0.0250626919745 -1.685492759916 0.9996824308606 -79.91283942817 0.9996824308606 -79.91283942817 0.0250637224642 21.870612494435
8.693800000000001 0.0250617912370 -1.687154501773 0.9996824529628 -79.91381956982 0.9996824529628 -79.91381956982 0.0250628219310 21.870315758296
8.693900000000001 0.0250608887197 -1.688817291599 0.9996824751081 -79.91479981579 0.9996824751081 -79.91479981579 0.0250619196185 21.870019867520
8.694000000000001 0.0250599844185 -1.690481132147 0.9996824972967 -79.91578016634 0.9996824972967 -79.91578016634 0.0250610155227 21.869724823942
8.694100000000001 0.0250590783272 -1.692146027187 0.9996825195287 -79.91676062181 0.9996825195287 -79.91676062181 0.0250601096374 21.869430630528
8.694200000000000 0.0250581704444 -1.693811977819 0.9996825418041 -79.91774118230 0.9996825418041 -79.91774118230 0.0250592019610 21.869137288381
8.694300000000000 0.0250572607611 -1.695478989272 0.9996825641232 -79.91872184833 0.9996825641232 -79.91872184833 0.0250582924847 21.868844801598
8.694400000000000 0.0250563492747 -1.697147062875 0.9996825864858 -79.91970262007 0.9996825864858 -79.91970262007 0.0250573812059 21.868553172104
8.694500000000000 0.0250554359800 -1.698816202799 0.9996826088924 -79.92068349780 0.9996826088924 -79.92068349780 0.0250564681192 21.868262401606
8.694600000000001 0.0250545208723 -1.700486411190 0.9996826313430 -79.92166448182 0.9996826313430 -79.92166448182 0.0250555532201 21.867972493146
8.694700000000001 0.0250536039459 -1.702157691694 0.9996826538375 -79.92264557246 0.9996826538375 -79.92264557246 0.0250546365029 21.867683449441
8.694800000000001 0.0250526851977 -1.703830046284 0.9996826763762 -79.92362676989 0.9996826763762 -79.92362676989 0.0250537179644 21.867395272115
8.694900000000001 0.0250517646198 -1.705503479683 0.9996826989592 -79.92460807459 0.9996826989592 -79.92460807459 0.0250527975968 21.867107965026
8.695000000000000 0.0250508422092 -1.707177994102 0.9996827215866 -79.92558948673 0.9996827215866 -79.92558948673 0.0250518753969 21.866821529593
8.695100000000000 0.0250499179604 -1.708853592710 0.9996827442586 -79.92657100663 0.9996827442586 -79.92657100663 0.0250509513595 21.866535968554
8.695200000000000 0.0250489918702 -1.710530277452 0.9996827669751 -79.92755263449 0.9996827669751 -79.92755263449 0.0250500254812 21.866251284021
8.695300000000001 0.0250480639300 -1.712208053721 0.9996827897365 -79.92853437081 0.9996827897365 -79.92853437081 0.0250490977534 21.865967479703
8.695400000000001 0.0250471341380 -1.713886922533 0.9996828125426 -79.92951621568 0.9996828125426 -79.92951621568 0.0250481681745 21.865684556841
8.695500000000001 0.0250462024855 -1.715566888886 0.9996828353937 -79.93049816964 0.9996828353937 -79.93049816964 0.0250472367356 21.865402520025
8.695600000000001 0.0250452689723 -1.717247953805 0.9996828582899 -79.93148023269 0.9996828582899 -79.93148023269 0.0250463034365 21.865121368859
8.695700000000000 0.0250443335895 -1.718930122576 0.9996828812315 -79.93246240535 0.9996828812315 -79.93246240535 0.0250453682684 21.864841107680
8.695800000000000 0.0250433963341 -1.720613396417 0.9996829042183 -79.93344468780 0.9996829042183 -79.93344468780 0.0250444312283 21.864561738806
8.695900000000000 0.0250424571993 -1.722297779860 0.9996829272505 -79.93442708044 0.9996829272505 -79.93442708044 0.0250434923093 21.864283265207
8.696000000000000 0.0250415161806 -1.723983275994 0.9996829503284 -79.93540958354 0.9996829503284 -79.93540958354 0.0250425515070 21.864005688967
8.696100000000001 0.0250405732735 -1.725669887362 0.9996829734520 -79.93639219736 0.9996829734520 -79.93639219736 0.0250416088168 21.863729012599
8.696200000000001 0.0250396284710 -1.727357617778 0.9996829966212 -79.93737492231 0.9996829966212 -79.93737492231 0.0250406642319 21.863453239854
8.696300000000001 0.0250386817701 -1.729046470110 0.9996830198366 -79.93835775857 0.9996830198366 -79.93835775857 0.0250397177491 21.863178371652
8.696400000000001 0.0250377331641 -1.730736447511 0.9996830430978 -79.93934070654 0.9996830430978 -79.93934070654 0.0250387693618 21.862904412142
8.696500000000000 0.0250367826499 -1.732427553099 0.9996830664055 -79.94032376639 0.9996830664055 -79.94032376639 0.0250378190668 21.862631361939
8.696600000000000 0.0250358302186 -1.734119791182 0.9996830897593 -79.94130693865 0.9996830897593 -79.94130693865 0.0250368668554 21.862359226273
8.696700000000000 0.0250348758665 -1.735813164237 0.9996831131595 -79.94229022353 0.9996831131595 -79.94229022353 0.0250359127238 21.862088006984
8.696800000000001 0.0250339195904 -1.737507675256 0.9996831366064 -79.94327362124 0.9996831366064 -79.94327362124 0.0250349566687 21.861817705084
8.696900000000001 0.0250329613823 -1.739203328153 0.9996831601000 -79.94425713223 0.9996831601000 -79.94425713223 0.0250339986822 21.861548325167
8.697000000000001 0.0250320012378 -1.740900125648 0.9996831836402 -79.94524075677 0.9996831836402 -79.94524075677 0.0250330387599 21.861279869664
8.697100000000001 0.0250310391515 -1.742598071978 0.9996832072275 -79.94622449517 0.9996832072275 -79.94622449517 0.0250320768963 21.861012340398
8.697200000000000 0.0250300751173 -1.744297169771 0.9996832308617 -79.94720834780 0.9996832308617 -79.94720834780 0.0250311130856 21.860745741396
8.697300000000000 0.0250291091312 -1.745997422230 0.9996832545431 -79.94819231488 0.9996832545431 -79.94819231488 0.0250301473235 21.860480074272
8.697400000000000 0.0250281411863 -1.747698833751 0.9996832782720 -79.94917639684 0.9996832782720 -79.94917639684 0.0250291796031 21.860215342304
8.697500000000000 0.0250271712783 -1.749401406891 0.9996833020483 -79.95016059391 0.9996833020483 -79.95016059391 0.0250282099202 21.859951547718
8.697600000000001 0.0250261994018 -1.751105144221 0.9996833258719 -79.95114490641 0.9996833258719 -79.95114490641 0.0250272382696 21.859688694080
8.697700000000001 0.0250252255497 -1.752810051047 0.9996833497434 -79.95212933477 0.9996833497434 -79.95212933477 0.0250262646439 21.859426783841
8.697800000000001 0.0250242497183 -1.754516129567 0.9996833736627 -79.95311387921 0.9996833736627 -79.95311387921 0.0250252890394 21.859165819414
8.697900000000001 0.0250232719017 -1.756223382832 0.9996833976297 -79.95409854006 0.9996833976297 -79.95409854006 0.0250243114505 21.858905803984
8.698000000000000 0.0250222920931 -1.757931815911 0.9996834216451 -79.95508331774 0.9996834216451 -79.95508331774 0.0250233318700 21.858646740348
8.698100000000000 0.0250213102870 -1.759641431585 0.9996834457086 -79.95606821256 0.9996834457086 -79.95606821256 0.0250223502927 21.858388631792
8.698200000000000 0.0250203264782 -1.761352233090 0.9996834698204 -79.95705322483 0.9996834698204 -79.95705322483 0.0250213667134 21.858131480876
8.698300000000000 0.0250193406618 -1.763064224054 0.9996834939808 -79.95803835484 0.9996834939808 -79.95803835484 0.0250203811269 21.857875289744
8.698400000000001 0.0250183528321 -1.764777406939 0.9996835181895 -79.95902360293 0.9996835181895 -79.95902360293 0.0250193935280 21.857620062198
8.698500000000001 0.0250173629844 -1.766491785822 0.9996835424470 -79.96000896936 0.9996835424470 -79.96000896936 0.0250184039116 21.857365799711
8.698600000000001 0.0250163711105 -1.768207365511 0.9996835667536 -79.96099445464 0.9996835667536 -79.96099445464 0.0250174122695 21.857112506435
8.698700000000001 0.0250153772053 -1.769924148639 0.9996835911090 -79.96198005904 0.9996835911090 -79.96198005904 0.0250164185968 21.856860185415
8.698800000000000 0.0250143812634 -1.771642138553 0.9996836155134 -79.96296578290 0.9996836155134 -79.96296578290 0.0250154228881 21.856608839524
8.698900000000000 0.0250133832804 -1.773361338934 0.9996836399673 -79.96395162647 0.9996836399673 -79.96395162647 0.0250144251388 21.856358470290
8.699000000000000 0.0250123832484 -1.775081753582 0.9996836644705 -79.96493759021 0.9996836644705 -79.96493759021 0.0250134253413 21.856109082364
8.699100000000001 0.0250113811631 -1.776803386084 0.9996836890233 -79.96592367440 0.9996836890233 -79.96592367440 0.0250124234910 21.855860677419
8.699200000000001 0.0250103770170 -1.778526240230 0.9996837136256 -79.96690987944 0.9996837136256 -79.96690987944 0.0250114195806 21.855613259702
8.699300000000001 0.0250093708057 -1.780250319312 0.9996837382778 -79.96789620562 0.9996837382778 -79.96789620562 0.0250104136057 21.855366831205
8.699400000000001 0.0250083625247 -1.781975626137 0.9996837629798 -79.96888265320 0.9996837629798 -79.96888265320 0.0250094055616 21.855121394438
8.699500000000000 0.0250073521638 -1.783702166933 0.9996837877321 -79.96986922277 0.9996837877321 -79.96986922277 0.0250083954383 21.854876954020
8.699600000000000 0.0250063397209 -1.785429942910 0.9996838125345 -79.97085591447 0.9996838125345 -79.97085591447 0.0250073832337 21.854633511595
8.699700000000000 0.0250053251877 -1.787158959376 0.9996838373873 -79.97184272877 0.9996838373873 -79.97184272877 0.0250063689393 21.854391071089
8.699800000000000 0.0250043085611 -1.788889217877 0.9996838622903 -79.97282966586 0.9996838622903 -79.97282966586 0.0250053525523 21.854149634579
8.699900000000001 0.0250032898306 -1.790620725387 0.9996838872442 -79.97381672637 0.9996838872442 -79.97381672637 0.0250043340620 21.853909206589
8.700000000000001 0.0250022689964 -1.792353481838 0.9996839122488 -79.97480391027 0.9996839122488 -79.97480391027 0.0250033134687 21.853669787593