! Sonnet Data File
! From: emgraph Version : 16.52
! From Project: 171117_Xmon_fullysym
! Data is De-embedded 
! Data File Written: 11/26/2017 21:44:46
!< HDATE 11/26/2017 17:24:49
!< MDATE 11/26/2017 17:24:49
!< PARAMS
!< Lj = 11.0
!< Gap = 1.0
!< Pwid = 2000.0
!< Airgap = 6.0
!< Width = 10.0
!< Lj1 = 9.4
!< END PARAMS
# GHZ S MA R 50.90000
8.600000000000001 0.0255946272304 -0.322567308955 0.9996691466378 -79.01273842929 0.9996691466377 -79.01273842957 0.0255955596797 22.307060903579
!< P1 F=8.6 Eeff=(6.44845572 -2.9799e-5) Z0=(50.9087207 1.17006e-4) R=0.0 C=0.0 
!< P2 F=8.6 Eeff=(6.44845572 -2.9799e-5) Z0=(50.9087207 1.17006e-4) R=0.0 C=0.0 
8.600200000000001 0.0255943111943 -0.325047872312 0.9996691545655 -79.01461195947 0.9996691545655 -79.01461195947 0.0255952437593 22.305795051016
8.600400000000000 0.0255939939634 -0.327529130664 0.9996691624983 -79.01648556090 0.9996691624983 -79.01648556090 0.0255949266237 22.304529711313
8.600600000000000 0.0255936755026 -0.330011056778 0.9996691704622 -79.01835923343 0.9996691704622 -79.01835923343 0.0255946082585 22.303264899150
8.600800000000001 0.0255933558094 -0.332493651937 0.9996691784572 -79.02023297720 0.9996691784572 -79.02023297720 0.0255942886612 22.302000615764
8.601000000000001 0.0255930348800 -0.334976918502 0.9996691864834 -79.02210679245 0.9996691864834 -79.02210679245 0.0255939678277 22.300736862839
8.601200000000000 0.0255927127112 -0.337460858032 0.9996691945410 -79.02398067935 0.9996691945410 -79.02398067935 0.0255936457552 22.299473641773
8.601400000000000 0.0255923892990 -0.339945472830 0.9996692026299 -79.02585463814 0.9996692026299 -79.02585463814 0.0255933224394 22.298210954507
8.601600000000001 0.0255920646395 -0.342430765141 0.9996692107503 -79.02772866906 0.9996692107503 -79.02772866906 0.0255929978765 22.296948802548
8.601800000000001 0.0255917387300 -0.344916736512 0.9996692189023 -79.02960277225 0.9996692189023 -79.02960277225 0.0255926720639 22.295687187203
8.602000000000000 0.0255914115656 -0.347403389587 0.9996692270860 -79.03147694801 0.9996692270860 -79.03147694801 0.0255923449965 22.294426110659
8.602200000000000 0.0255910831443 -0.349890725562 0.9996692353014 -79.03335119646 0.9996692353014 -79.03335119646 0.0255920166725 22.293165573834
8.602400000000001 0.0255907534603 -0.352378747641 0.9996692435487 -79.03522551793 0.9996692435487 -79.03522551793 0.0255916870860 22.291905579148
8.602600000000001 0.0255904225119 -0.354867456842 0.9996692518279 -79.03709991252 0.9996692518279 -79.03709991252 0.0255913562353 22.290646127564
8.602800000000000 0.0255900902945 -0.357356855772 0.9996692601392 -79.03897438051 0.9996692601392 -79.03897438051 0.0255910241157 22.289387221067
8.603000000000000 0.0255897568047 -0.359846946221 0.9996692684826 -79.04084892209 0.9996692684826 -79.04084892209 0.0255906907241 22.288128861077
8.603200000000001 0.0255894220383 -0.362337730664 0.9996692768582 -79.04272353752 0.9996692768582 -79.04272353752 0.0255903560561 22.286871049569
8.603400000000001 0.0255890859920 -0.364829210789 0.9996692852661 -79.04459822698 0.9996692852661 -79.04459822698 0.0255900201083 22.285613788149
8.603600000000000 0.0255887486621 -0.367321388825 0.9996692937064 -79.04647299069 0.9996692937064 -79.04647299069 0.0255896828771 22.284357078253
8.603800000000000 0.0255884100442 -0.369814267284 0.9996693021792 -79.04834782891 0.9996693021792 -79.04834782891 0.0255893443582 22.283100921779
8.604000000000001 0.0255880701352 -0.372307847663 0.9996693106846 -79.05022274182 0.9996693106846 -79.05022274182 0.0255890045485 22.281845320374
8.604200000000001 0.0255877289317 -0.374802132180 0.9996693192227 -79.05209772962 0.9996693192227 -79.05209772962 0.0255886634443 22.280590275412
8.604400000000000 0.0255873864283 -0.377297123693 0.9996693277936 -79.05397279264 0.9996693277936 -79.05397279264 0.0255883210405 22.279335789257
8.604600000000001 0.0255870426232 -0.379792823143 0.9996693363973 -79.05584793097 0.9996693363973 -79.05584793097 0.0255879773353 22.278081862894
8.604800000000001 0.0255866975106 -0.382289233994 0.9996693450340 -79.05772314494 0.9996693450340 -79.05772314494 0.0255876323228 22.276828498599
8.605000000000000 0.0255863510882 -0.384786357411 0.9996693537038 -79.05959843471 0.9996693537038 -79.05959843471 0.0255872860008 22.275575697645
8.605200000000000 0.0255860033512 -0.387284196031 0.9996693624068 -79.06147380056 0.9996693624068 -79.06147380056 0.0255869383643 22.274323462206
8.605400000000001 0.0255856542964 -0.389782751835 0.9996693711429 -79.06334924266 0.9996693711429 -79.06334924266 0.0255865894102 22.273071793624
8.605600000000001 0.0255853039188 -0.392282027487 0.9996693799125 -79.06522476131 0.9996693799125 -79.06522476131 0.0255862391337 22.271820693996
8.605800000000000 0.0255849522163 -0.394782024247 0.9996693887155 -79.06710035665 0.9996693887155 -79.06710035665 0.0255858875323 22.270570164577
8.606000000000000 0.0255845991827 -0.397282745517 0.9996693975521 -79.06897602902 0.9996693975521 -79.06897602902 0.0255855346002 22.269320207822
8.606200000000001 0.0255842448157 -0.399784192694 0.9996694064223 -79.07085177857 0.9996694064223 -79.07085177857 0.0255851803348 22.268070824944
8.606400000000001 0.0255838891109 -0.402286368130 0.9996694153263 -79.07272760554 0.9996694153263 -79.07272760554 0.0255848247319 22.266822017838
8.606600000000000 0.0255835320643 -0.404789274214 0.9996694242641 -79.07460351019 0.9996694242641 -79.07460351019 0.0255844677875 22.265573788277
8.606800000000000 0.0255831736717 -0.407292913155 0.9996694332358 -79.07647949275 0.9996694332358 -79.07647949275 0.0255841094972 22.264326138282
8.607000000000001 0.0255828139293 -0.409797287211 0.9996694422416 -79.07835555346 0.9996694422416 -79.07835555346 0.0255837498573 22.263079069417
8.607200000000001 0.0255824528330 -0.412302398664 0.9996694512816 -79.08023169253 0.9996694512816 -79.08023169253 0.0255833888639 22.261832583445
8.607400000000000 0.0255820903790 -0.414808249617 0.9996694603558 -79.08210791022 0.9996694603557 -79.08210791022 0.0255830265129 22.260586682268
8.607600000000000 0.0255817265629 -0.417314842489 0.9996694694643 -79.08398420675 0.9996694694643 -79.08398420675 0.0255826628001 22.259341367713
8.607800000000001 0.0255813613808 -0.419822179691 0.9996694786073 -79.08586058238 0.9996694786073 -79.08586058238 0.0255822977215 22.258096641500
8.608000000000001 0.0255809948282 -0.422330263548 0.9996694877848 -79.08773703737 0.9996694877848 -79.08773703737 0.0255819312726 22.256852505791
8.608200000000000 0.0255806269017 -0.424839096065 0.9996694969970 -79.08961357191 0.9996694969970 -79.08961357191 0.0255815634501 22.255608961986
8.608400000000001 0.0255802575967 -0.427348679691 0.9996695062439 -79.09149018626 0.9996695062439 -79.09149018626 0.0255811942493 22.254366012184
8.608600000000001 0.0255798869093 -0.429859016900 0.9996695155257 -79.09336688067 0.9996695155257 -79.09336688067 0.0255808236664 22.253123658059
8.608800000000000 0.0255795148348 -0.432370110076 0.9996695248425 -79.09524365541 0.9996695248425 -79.09524365541 0.0255804516965 22.251881901868
8.609000000000000 0.0255791413696 -0.434881961338 0.9996695341943 -79.09712051069 0.9996695341943 -79.09712051069 0.0255800783362 22.250640745080
8.609200000000001 0.0255787665094 -0.437394573184 0.9996695435813 -79.09899744676 0.9996695435813 -79.09899744676 0.0255797035812 22.249400189629
8.609400000000001 0.0255783902495 -0.439907948184 0.9996695530036 -79.10087446389 0.9996695530036 -79.10087446389 0.0255793274267 22.248160237619
8.609600000000000 0.0255780125865 -0.442422088082 0.9996695624612 -79.10275156229 0.9996695624612 -79.10275156229 0.0255789498694 22.246920890777
8.609800000000000 0.0255776335152 -0.444936996123 0.9996695719543 -79.10462874226 0.9996695719543 -79.10462874226 0.0255785709040 22.245682151154
8.610000000000001 0.0255772530322 -0.447452674015 0.9996695814830 -79.10650600401 0.9996695814830 -79.10650600401 0.0255781905271 22.244444020488
8.610200000000001 0.0255768711331 -0.449969124430 0.9996695910474 -79.10838334779 0.9996695910474 -79.10838334779 0.0255778087344 22.243206500521
8.610400000000000 0.0255764878130 -0.452486349835 0.9996696006476 -79.11026077388 0.9996696006476 -79.11026077388 0.0255774255209 22.241969593673
8.610600000000000 0.0255761030680 -0.455004352705 0.9996696102838 -79.11213828252 0.9996696102838 -79.11213828252 0.0255770408827 22.240733301572
8.610800000000001 0.0255757168935 -0.457523135483 0.9996696199559 -79.11401587398 0.9996696199559 -79.11401587398 0.0255766548153 22.239497626293
8.611000000000001 0.0255753292857 -0.460042700302 0.9996696296641 -79.11589354848 0.9996696296641 -79.11589354848 0.0255762673149 22.238262569587
8.611200000000000 0.0255749402392 -0.462563050287 0.9996696394087 -79.11777130633 0.9996696394087 -79.11777130633 0.0255758783760 22.237028133739
8.611400000000000 0.0255745497508 -0.465084187190 0.9996696491895 -79.11964914773 0.9996696491895 -79.11964914773 0.0255754879955 22.235794320310
8.611600000000001 0.0255741578158 -0.467606113655 0.9996696590068 -79.12152707295 0.9996696590068 -79.12152707295 0.0255750961686 22.234561131483
8.611800000000001 0.0255737644290 -0.470128832704 0.9996696688606 -79.12340508230 0.9996696688606 -79.12340508230 0.0255747028901 22.233328569326
8.612000000000000 0.0255733695864 -0.472652346419 0.9996696787512 -79.12528317601 0.9996696787512 -79.12528317601 0.0255743081562 22.232096635895
8.612200000000001 0.0255729732836 -0.475176657382 0.9996696886784 -79.12716135433 0.9996696886784 -79.12716135433 0.0255739119622 22.230865333104
8.612400000000001 0.0255725755159 -0.477701768260 0.9996696986427 -79.12903961755 0.9996696986427 -79.12903961755 0.0255735143037 22.229634662869
8.612600000000000 0.0255721762797 -0.480227681105 0.9996697086439 -79.13091796588 0.9996697086439 -79.13091796588 0.0255731151768 22.228404627079
8.612800000000000 0.0255717755692 -0.482754399098 0.9996697186822 -79.13279639966 0.9996697186822 -79.13279639966 0.0255727145759 22.227175228179
8.613000000000001 0.0255713733810 -0.485281924184 0.9996697287577 -79.13467491907 0.9996697287577 -79.13467491907 0.0255723124977 22.225946467690
8.613200000000001 0.0255709697094 -0.487810259679 0.9996697388706 -79.13655352448 0.9996697388706 -79.13655352448 0.0255719089361 22.224718348205
8.613400000000000 0.0255705645503 -0.490339407810 0.9996697490210 -79.13843221610 0.9996697490210 -79.13843221610 0.0255715038874 22.223490871529
8.613600000000000 0.0255701578996 -0.492869370782 0.9996697592089 -79.14031099419 0.9996697592089 -79.14031099419 0.0255710973474 22.222264039628
8.613800000000001 0.0255697497521 -0.495400151712 0.9996697694345 -79.14218985904 0.9996697694345 -79.14218985904 0.0255706893108 22.221037854743
8.614000000000001 0.0255693401036 -0.497931752924 0.9996697796979 -79.14406881091 0.9996697796979 -79.14406881091 0.0255702797735 22.219812318723
8.614200000000000 0.0255689289489 -0.500464177349 0.9996697899992 -79.14594785010 0.9996697899992 -79.14594785010 0.0255698687303 22.218587433886
8.614400000000000 0.0255685162833 -0.502997427533 0.9996698003386 -79.14782697689 0.9996698003386 -79.14782697689 0.0255694561763 22.217363202543
8.614600000000001 0.0255681021023 -0.505531506151 0.9996698107161 -79.14970619153 0.9996698107161 -79.14970619153 0.0255690421073 22.216139626442
8.614800000000001 0.0255676864018 -0.508066415503 0.9996698211319 -79.15158549427 0.9996698211319 -79.15158549427 0.0255686265191 22.214916707552
8.615000000000000 0.0255672691760 -0.510602158811 0.9996698315860 -79.15346488547 0.9996698315860 -79.15346488547 0.0255682094057 22.213694448555
8.615200000000000 0.0255668504214 -0.513138738019 0.9996698420786 -79.15534436529 0.9996698420786 -79.15534436529 0.0255677907640 22.212472850921
8.615400000000001 0.0255664301318 -0.515676156757 0.9996698526099 -79.15722393414 0.9996698526099 -79.15722393414 0.0255673705874 22.211251917418
8.615600000000001 0.0255660083031 -0.518214417263 0.9996698631799 -79.15910359224 0.9996698631800 -79.15910359224 0.0255669488720 22.210031649965
8.615800000000000 0.0255655849306 -0.520753522100 0.9996698737888 -79.16098333985 0.9996698737888 -79.16098333985 0.0255665256131 22.208812050659
8.616000000000000 0.0255651600093 -0.523293474221 0.9996698844366 -79.16286317730 0.9996698844366 -79.16286317730 0.0255661008056 22.207593121774
8.616200000000001 0.0255647335341 -0.525834276497 0.9996698951236 -79.16474310486 0.9996698951236 -79.16474310486 0.0255656744445 22.206374865504
8.616400000000001 0.0255643055013 -0.528375931009 0.9996699058497 -79.16662312276 0.9996699058497 -79.16662312276 0.0255652465262 22.205157283565
8.616600000000000 0.0255638759037 -0.530918441688 0.9996699166152 -79.16850323142 0.9996699166152 -79.16850323142 0.0255648170433 22.203940379265
8.616800000000001 0.0255634447388 -0.533461810150 0.9996699274201 -79.17038343100 0.9996699274201 -79.17038343100 0.0255643859932 22.202724153716
8.617000000000001 0.0255630120001 -0.536006039963 0.9996699382647 -79.17226372185 0.9996699382647 -79.17226372185 0.0255639533698 22.201508609663
8.617200000000000 0.0255625776834 -0.538551133673 0.9996699491489 -79.17414410425 0.9996699491489 -79.17414410425 0.0255635191685 22.200293749127
8.617400000000000 0.0255621417833 -0.541097094100 0.9996699600730 -79.17602457849 0.9996699600730 -79.17602457849 0.0255630833842 22.199079574527
8.617600000000001 0.0255617042950 -0.543643923860 0.9996699710370 -79.17790514487 0.9996699710370 -79.17790514487 0.0255626460120 22.197866088172
8.617800000000001 0.0255612652131 -0.546191626320 0.9996699820411 -79.17978580370 0.9996699820411 -79.17978580370 0.0255622070465 22.196653292242
8.618000000000000 0.0255608245328 -0.548740204154 0.9996699930855 -79.18166655526 0.9996699930855 -79.18166655526 0.0255617664827 22.195441188964
8.618200000000000 0.0255603822496 -0.551289659597 0.9996700041700 -79.18354739982 0.9996700041700 -79.18354739982 0.0255613243165 22.194229780554
8.618400000000001 0.0255599383576 -0.553839996215 0.9996700152951 -79.18542833772 0.9996700152951 -79.18542833772 0.0255608805417 22.193019069523
8.618600000000001 0.0255594928514 -0.556391217247 0.9996700264608 -79.18730936929 0.9996700264608 -79.18730936929 0.0255604351529 22.191809058175
8.618800000000000 0.0255590457270 -0.558943324588 0.9996700376672 -79.18919049475 0.9996700376672 -79.18919049475 0.0255599881464 22.190599748473
8.619000000000000 0.0255585969783 -0.561496321867 0.9996700489144 -79.19107171446 0.9996700489144 -79.19107171446 0.0255595395157 22.189391143194
8.619200000000001 0.0255581466006 -0.564050211810 0.9996700602025 -79.19295302871 0.9996700602025 -79.19295302871 0.0255590892564 22.188183244320
8.619400000000001 0.0255576945891 -0.566604997029 0.9996700715318 -79.19483443776 0.9996700715318 -79.19483443776 0.0255586373635 22.186976054174
8.619600000000000 0.0255572409378 -0.569160680882 0.9996700829022 -79.19671594198 0.9996700829022 -79.19671594198 0.0255581838311 22.185769575365
8.619800000000000 0.0255567856411 -0.571717266715 0.9996700943141 -79.19859754169 0.9996700943141 -79.19859754169 0.0255577286536 22.184563810339
8.620000000000001 0.0255563286939 -0.574274757230 0.9996701057674 -79.20047923720 0.9996701057674 -79.20047923720 0.0255572718259 22.183358761527
8.620200000000001 0.0255558700918 -0.576833155052 0.9996701172624 -79.20236102875 0.9996701172624 -79.20236102875 0.0255568133436 22.182154430744
8.620400000000000 0.0255554098294 -0.579392463097 0.9996701287991 -79.20424291667 0.9996701287991 -79.20424291667 0.0255563532013 22.180950820727
8.620600000000001 0.0255549479001 -0.581952685208 0.9996701403776 -79.20612490135 0.9996701403776 -79.20612490135 0.0255558913924 22.179747934176
8.620800000000001 0.0255544842999 -0.584513823589 0.9996701519982 -79.20800698301 0.9996701519982 -79.20800698301 0.0255554279129 22.178545773072
8.621000000000000 0.0255540190225 -0.587075881834 0.9996701636609 -79.20988916204 0.9996701636609 -79.20988916204 0.0255549627565 22.177344340183
8.621200000000000 0.0255535520633 -0.589638862662 0.9996701753659 -79.21177143869 0.9996701753659 -79.21177143869 0.0255544959186 22.176143637457
8.621400000000001 0.0255530834162 -0.592202769310 0.9996701871132 -79.21365381334 0.9996701871132 -79.21365381334 0.0255540273930 22.174943667958
8.621600000000001 0.0255526130755 -0.594767605194 0.9996701989032 -79.21553628631 0.9996701989032 -79.21553628631 0.0255535571742 22.173744433874
8.621800000000000 0.0255521410358 -0.597333373208 0.9996702107358 -79.21741885791 0.9996702107358 -79.21741885791 0.0255530852568 22.172545937893
8.622000000000000 0.0255516672930 -0.599900075874 0.9996702226112 -79.21930152840 0.9996702226112 -79.21930152840 0.0255526116364 22.171348181858
8.622200000000001 0.0255511918396 -0.602467717186 0.9996702345296 -79.22118429820 0.9996702345296 -79.22118429820 0.0255521363059 22.170151169064
8.622400000000001 0.0255507146715 -0.605036299692 0.9996702464911 -79.22306716757 0.9996702464911 -79.22306716757 0.0255516592609 22.168954901480
8.622600000000000 0.0255502357820 -0.607605827200 0.9996702584958 -79.22495013690 0.9996702584958 -79.22495013690 0.0255511804948 22.167759381915
8.622800000000000 0.0255497551663 -0.610176302196 0.9996702705439 -79.22683320646 0.9996702705439 -79.22683320646 0.0255507000028 22.166564612854
8.623000000000001 0.0255492728180 -0.612747728568 0.9996702826355 -79.22871637663 0.9996702826355 -79.22871637663 0.0255502177786 22.165370596802
8.623200000000001 0.0255487887325 -0.615320108620 0.9996702947707 -79.23059964769 0.9996702947707 -79.23059964769 0.0255497338175 22.164177336288
8.623400000000000 0.0255483029030 -0.617893446547 0.9996703069497 -79.23248302002 0.9996703069497 -79.23248302002 0.0255492481126 22.162984833987
8.623600000000000 0.0255478153249 -0.620467744787 0.9996703191727 -79.23436649391 0.9996703191727 -79.23436649391 0.0255487606596 22.161793092156
8.623800000000001 0.0255473259912 -0.623043007408 0.9996703314397 -79.23625006977 0.9996703314397 -79.23625006977 0.0255482714511 22.160602113911
8.624000000000001 0.0255468348971 -0.625619236978 0.9996703437510 -79.23813374786 0.9996703437510 -79.23813374786 0.0255477804827 22.159411901444
8.624200000000000 0.0255463420366 -0.628196436912 0.9996703561065 -79.24001752856 0.9996703561065 -79.24001752856 0.0255472877481 22.158222457633
8.624400000000001 0.0255458474035 -0.630774610803 0.9996703685066 -79.24190141222 0.9996703685066 -79.24190141222 0.0255467932413 22.157033785007
8.624600000000001 0.0255453509917 -0.633353762180 0.9996703809513 -79.24378539919 0.9996703809513 -79.24378539919 0.0255462969561 22.155845886345
8.624800000000000 0.0255448527971 -0.635933893347 0.9996703934409 -79.24566948973 0.9996703934409 -79.24566948973 0.0255457988884 22.154658763670
8.625000000000000 0.0255443528115 -0.638515008808 0.9996704059753 -79.24755368431 0.9996704059753 -79.24755368431 0.0255452990300 22.153472420660
8.625200000000001 0.0255438510310 -0.641097110962 0.9996704185549 -79.24943798316 0.9996704185549 -79.24943798316 0.0255447973771 22.152286858901
8.625400000000001 0.0255433474487 -0.643680203514 0.9996704311795 -79.25132238669 0.9996704311795 -79.25132238669 0.0255442939226 22.151102081888
8.625600000000000 0.0255428420579 -0.646264290433 0.9996704438497 -79.25320689528 0.9996704438497 -79.25320689528 0.0255437886601 22.149918092189
8.625800000000000 0.0255423348536 -0.648849374558 0.9996704565653 -79.25509150924 0.9996704565653 -79.25509150924 0.0255432815843 22.148734892397
8.626000000000001 0.0255418258293 -0.651435459515 0.9996704693267 -79.25697622894 0.9996704693267 -79.25697622894 0.0255427726889 22.147552485257
8.626200000000001 0.0255413149795 -0.654022548350 0.9996704821338 -79.25886105471 0.9996704821338 -79.25886105471 0.0255422619683 22.146370873521
8.626400000000000 0.0255408022977 -0.656610644845 0.9996704949868 -79.26074598692 0.9996704949868 -79.26074598692 0.0255417494161 22.145190059907
8.626600000000000 0.0255402877777 -0.659199752710 0.9996705078861 -79.26263102596 0.9996705078861 -79.26263102596 0.0255412350259 22.144010047217
8.626800000000001 0.0255397714131 -0.661789875289 0.9996705208316 -79.26451617218 0.9996705208316 -79.26451617218 0.0255407187915 22.142830838393
8.627000000000001 0.0255392531990 -0.664381015509 0.9996705338235 -79.26640142588 0.9996705338235 -79.26640142588 0.0255402007080 22.141652435679
8.627200000000000 0.0255387331276 -0.666973177699 0.9996705468620 -79.26828678751 0.9996705468620 -79.26828678751 0.0255396807675 22.140474842675
8.627400000000000 0.0255382111940 -0.669566364893 0.9996705599472 -79.27017225737 0.9996705599472 -79.27017225737 0.0255391589651 22.139298061437
8.627600000000001 0.0255376873912 -0.672160580789 0.9996705730793 -79.27205783586 0.9996705730793 -79.27205783586 0.0255386352938 22.138122095285
8.627800000000001 0.0255371617123 -0.674755829297 0.9996705862584 -79.27394352339 0.9996705862584 -79.27394352339 0.0255381097468 22.136946947334
8.628000000000000 0.0255366341531 -0.677352113101 0.9996705994848 -79.27582932020 0.9996705994848 -79.27582932020 0.0255375823199 22.135772619350
8.628200000000001 0.0255361047050 -0.679949436731 0.9996706127584 -79.27771522680 0.9996706127584 -79.27771522680 0.0255370530044 22.134599115445
8.628400000000001 0.0255355733630 -0.682547803306 0.9996706260796 -79.27960124349 0.9996706260796 -79.27960124349 0.0255365217954 22.133426437706
8.628600000000000 0.0255350401200 -0.685147216727 0.9996706394484 -79.28148737068 0.9996706394484 -79.28148737068 0.0255359886856 22.132254589462
8.628800000000000 0.0255345049697 -0.687747680652 0.9996706528651 -79.28337360874 0.9996706528651 -79.28337360874 0.0255354536691 22.131083573387
8.629000000000001 0.0255339679061 -0.690349198439 0.9996706663297 -79.28525995803 0.9996706663297 -79.28525995803 0.0255349167394 22.129913392494
8.629200000000001 0.0255334289227 -0.692951773850 0.9996706798425 -79.28714641892 0.9996706798425 -79.28714641892 0.0255343778904 22.128744049510
8.629400000000000 0.0255328880123 -0.695555410852 0.9996706934036 -79.28903299183 0.9996706934036 -79.28903299183 0.0255338371147 22.127575547788
8.629600000000000 0.0255323451688 -0.698160113000 0.9996707070131 -79.29091967713 0.9996707070131 -79.29091967713 0.0255332944063 22.126407890110
8.629800000000001 0.0255318003851 -0.700765884418 0.9996707206713 -79.29280647524 0.9996707206713 -79.29280647524 0.0255327497581 22.125241079548
8.630000000000001 0.0255312536557 -0.703372728074 0.9996707343783 -79.29469338647 0.9996707343783 -79.29469338647 0.0255322031644 22.124075118865
8.630200000000000 0.0255307049735 -0.705980648213 0.9996707481342 -79.29658041124 0.9996707481342 -79.29658041124 0.0255316546184 22.122910011024
8.630400000000000 0.0255301543316 -0.708589648418 0.9996707619391 -79.29846754997 0.9996707619391 -79.29846754997 0.0255311041130 22.121745759511
8.630600000000001 0.0255296017231 -0.711199732939 0.9996707757934 -79.30035480304 0.9996707757934 -79.30035480304 0.0255305516414 22.120582367093
8.630800000000001 0.0255290471413 -0.713810905629 0.9996707896972 -79.30224217087 0.9996707896972 -79.30224217087 0.0255299971968 22.119419836784
8.631000000000000 0.0255284905799 -0.716423169800 0.9996708036505 -79.30412965381 0.9996708036505 -79.30412965381 0.0255294407730 22.118258171776
8.631200000000000 0.0255279320322 -0.719036529441 0.9996708176536 -79.30601725226 0.9996708176536 -79.30601725226 0.0255288823633 22.117097374876
8.631400000000001 0.0255273714904 -0.721650988850 0.9996708317067 -79.30790496667 0.9996708317067 -79.30790496667 0.0255283219599 22.115937449767
8.631600000000001 0.0255268089488 -0.724266551518 0.9996708458099 -79.30979279739 0.9996708458099 -79.30979279739 0.0255277595570 22.114778398901
8.631800000000000 0.0255262444000 -0.726883221440 0.9996708599633 -79.31168074485 0.9996708599633 -79.31168074485 0.0255271951473 22.113620225818
8.632000000000000 0.0255256778371 -0.729501002706 0.9996708741672 -79.31356880945 0.9996708741672 -79.31356880945 0.0255266287238 22.112462933442
8.632200000000001 0.0255251092533 -0.732119899067 0.9996708884217 -79.31545699159 0.9996708884217 -79.31545699159 0.0255260602799 22.111306525034
8.632400000000001 0.0255245386410 -0.734739914928 0.9996709027271 -79.31734529173 0.9996709027271 -79.31734529173 0.0255254898078 22.110151003939
8.632600000000000 0.0255239659944 -0.737361053541 0.9996709170834 -79.31923371018 0.9996709170834 -79.31923371018 0.0255249173019 22.108996372919
8.632800000000001 0.0255233913047 -0.739983319942 0.9996709314908 -79.32112224749 0.9996709314908 -79.32112224749 0.0255243427531 22.107842635908
8.633000000000001 0.0255228145664 -0.742606717210 0.9996709459495 -79.32301090396 0.9996709459495 -79.32301090396 0.0255237661562 22.106689795438
8.633200000000000 0.0255222357722 -0.745231249810 0.9996709604598 -79.32489968004 0.9996709604598 -79.32489968004 0.0255231875038 22.105537854685
8.633400000000000 0.0255216549136 -0.747856922191 0.9996709750217 -79.32678857621 0.9996709750217 -79.32678857621 0.0255226067873 22.104386817723
8.633600000000001 0.0255210719850 -0.750483737779 0.9996709896354 -79.32867759280 0.9996709896354 -79.32867759280 0.0255220240012 22.103236686942
8.633800000000001 0.0255204869785 -0.753111700846 0.9996710043011 -79.33056673028 0.9996710043011 -79.33056673028 0.0255214391377 22.102087466171
8.634000000000000 0.0255198998874 -0.755740815578 0.9996710190191 -79.33245598905 0.9996710190191 -79.33245598905 0.0255208521899 22.100939158164
8.634200000000000 0.0255193107020 -0.758371087117 0.9996710337894 -79.33434536967 0.9996710337894 -79.33434536967 0.0255202631482 22.099791767541
8.634400000000001 0.0255187194187 -0.761002517963 0.9996710486123 -79.33623487236 0.9996710486123 -79.33623487236 0.0255196720090 22.098645295793
8.634600000000001 0.0255181260280 -0.763635113076 0.9996710634879 -79.33812449766 0.9996710634879 -79.33812449766 0.0255190787628 22.097499747480
8.634800000000000 0.0255175305221 -0.766268877108 0.9996710784165 -79.34001424604 0.9996710784165 -79.34001424604 0.0255184834018 22.096355125930
8.635000000000000 0.0255169328959 -0.768903813065 0.9996710933981 -79.34190411781 0.9996710933981 -79.34190411781 0.0255178859210 22.095211433599
8.635200000000001 0.0255163331388 -0.771539927003 0.9996711084330 -79.34379411358 0.9996711084330 -79.34379411358 0.0255172863095 22.094068675167
8.635400000000001 0.0255157312454 -0.774177221705 0.9996711235214 -79.34568423366 0.9996711235214 -79.34568423366 0.0255166845622 22.092926853344
8.635600000000000 0.0255151272077 -0.776815702249 0.9996711386635 -79.34757447854 0.9996711386635 -79.34757447854 0.0255160806710 22.091785971412
8.635800000000000 0.0255145210180 -0.779455372461 0.9996711538593 -79.34946484865 0.9996711538593 -79.34946484865 0.0255154746283 22.090646033298
8.636000000000001 0.0255139126686 -0.782096237070 0.9996711691092 -79.35135534446 0.9996711691092 -79.35135534446 0.0255148664262 22.089507042289
8.636200000000001 0.0255133021526 -0.784738300019 0.9996711844133 -79.35324596636 0.9996711844133 -79.35324596636 0.0255142560580 22.088369001571
8.636400000000000 0.0255126894609 -0.787381566424 0.9996711997718 -79.35513671490 0.9996711997718 -79.35513671490 0.0255136435145 22.087231915226
8.636600000000001 0.0255120745871 -0.790026040041 0.9996712151850 -79.35702759046 0.9996712151850 -79.35702759046 0.0255130287892 22.086095786278
8.636800000000001 0.0255114575232 -0.792671725240 0.9996712306528 -79.35891859348 0.9996712306528 -79.35891859348 0.0255124118744 22.084960618358
8.637000000000000 0.0255108382606 -0.795318627087 0.9996712461756 -79.36080972449 0.9996712461756 -79.36080972449 0.0255117927611 22.083826415408
8.637200000000000 0.0255102167922 -0.797966749725 0.9996712617537 -79.36270098391 0.9996712617537 -79.36270098391 0.0255111714426 22.082693180503
8.637400000000001 0.0255095931099 -0.800616097626 0.9996712773871 -79.36459237220 0.9996712773871 -79.36459237220 0.0255105479105 22.081560917560
8.637600000000001 0.0255089672063 -0.803266675117 0.9996712930760 -79.36648388980 0.9996712930760 -79.36648388980 0.0255099221576 22.080429629876
8.637800000000000 0.0255083390725 -0.805918487199 0.9996713088207 -79.36837553723 0.9996713088207 -79.36837553723 0.0255092941749 22.079299321496
8.638000000000000 0.0255077087013 -0.808571537889 0.9996713246212 -79.37026731492 0.9996713246212 -79.37026731492 0.0255086639552 22.078169995868
8.638200000000001 0.0255070760848 -0.811225832009 0.9996713404780 -79.37215922334 0.9996713404780 -79.37215922334 0.0255080314907 22.077041656345
8.638400000000001 0.0255064412143 -0.813881374367 0.9996713563910 -79.37405126298 0.9996713563910 -79.37405126298 0.0255073967726 22.075914307018
8.638600000000000 0.0255058040814 -0.816538169758 0.9996713723607 -79.37594343435 0.9996713723607 -79.37594343435 0.0255067597926 22.074787951690
8.638800000000000 0.0255051646797 -0.819196221935 0.9996713883870 -79.37783573782 0.9996713883870 -79.37783573782 0.0255061205441 22.073662593419
8.639000000000001 0.0255045229989 -0.821855536548 0.9996714044702 -79.37972817399 0.9996714044702 -79.37972817399 0.0255054790171 22.072538236832
8.639200000000001 0.0255038790326 -0.824516117612 0.9996714206106 -79.38162074325 0.9996714206106 -79.38162074325 0.0255048352049 22.071414884830
8.639400000000000 0.0255032327712 -0.827177970396 0.9996714368084 -79.38351344615 0.9996714368083 -79.38351344615 0.0255041890981 22.070292541831
8.639600000000000 0.0255025842066 -0.829841099647 0.9996714530637 -79.38540628318 0.9996714530637 -79.38540628318 0.0255035406885 22.069171211423
8.639800000000001 0.0255019333311 -0.832505509619 0.9996714693767 -79.38729925477 0.9996714693767 -79.38729925477 0.0255028899685 22.068050897317
8.640000000000001 0.0255012801362 -0.835171205372 0.9996714857476 -79.38919236144 0.9996714857476 -79.38919236144 0.0255022369295 22.066931603362
8.640200000000000 0.0255006246126 -0.837838191964 0.9996715021767 -79.39108560373 0.9996715021767 -79.39108560373 0.0255015815623 22.065813333814