! Sonnet Data File
! From: emgraph Version : 16.52
! From Project: 171117_Xmon_fullysym
! Data is De-embedded 
! Data File Written: 11/27/2017 00:27:56
!< HDATE 11/26/2017 21:47:59
!< MDATE 11/26/2017 21:47:59
!< PARAMS
!< Lj = 11.0
!< Gap = 1.0
!< Pwid = 2000.0
!< Airgap = 6.0
!< Width = 10.0
!< Lj1 = 10.72
!< END PARAMS
# GHZ S MA R 50.90000
8.76000000 0.022826 -3.712 0.999735 -80.66 0.999735 -80.66 0.022828 22.411
!< P1 F=8.76 Eeff=(6.44841381 -2.9796e-5) Z0=(50.9085048 1.17026e-4) R=0.0 C=0.0 
!< P2 F=8.76 Eeff=(6.44841381 -2.9796e-5) Z0=(50.9085048 1.17026e-4) R=0.0 C=0.0 
8.76005000 0.022823 -3.714 0.999735 -80.66 0.999735 -80.66 0.022825 22.412
8.76010000 0.022821 -3.716 0.999735 -80.66 0.999735 -80.66 0.022822 22.413
8.76015000 0.022818 -3.719 0.999735 -80.66 0.999735 -80.66 0.022820 22.414
8.76020000 0.022815 -3.721 0.999735 -80.66 0.999735 -80.66 0.022817 22.415
8.76025000 0.022813 -3.723 0.999735 -80.66 0.999735 -80.66 0.022814 22.416
8.76030000 0.022810 -3.726 0.999735 -80.66 0.999735 -80.66 0.022811 22.417
8.76035000 0.022807 -3.728 0.999736 -80.66 0.999736 -80.66 0.022809 22.418
8.76040000 0.022804 -3.730 0.999736 -80.66 0.999736 -80.66 0.022806 22.419
8.76045000 0.022802 -3.733 0.999736 -80.66 0.999736 -80.66 0.022803 22.420
8.76050000 0.022799 -3.735 0.999736 -80.66 0.999736 -80.66 0.022800 22.421
8.76055000 0.022796 -3.737 0.999736 -80.67 0.999736 -80.67 0.022798 22.422
8.76060000 0.022793 -3.740 0.999736 -80.67 0.999736 -80.67 0.022795 22.424
8.76065000 0.022791 -3.742 0.999736 -80.67 0.999736 -80.67 0.022792 22.425
8.76070000 0.022788 -3.744 0.999736 -80.67 0.999736 -80.67 0.022789 22.426
8.76075000 0.022785 -3.747 0.999736 -80.67 0.999736 -80.67 0.022787 22.427
8.76080000 0.022782 -3.749 0.999736 -80.67 0.999736 -80.67 0.022784 22.428
8.76085000 0.022779 -3.751 0.999736 -80.67 0.999736 -80.67 0.022781 22.429
8.76090000 0.022777 -3.754 0.999736 -80.67 0.999736 -80.67 0.022778 22.430
8.76095000 0.022774 -3.756 0.999736 -80.67 0.999736 -80.67 0.022775 22.431
8.76100000 0.022771 -3.758 0.999736 -80.67 0.999736 -80.67 0.022773 22.432
8.76105000 0.022768 -3.761 0.999736 -80.67 0.999736 -80.67 0.022770 22.433
8.76110000 0.022765 -3.763 0.999736 -80.67 0.999736 -80.67 0.022767 22.434
8.76115000 0.022763 -3.765 0.999737 -80.67 0.999737 -80.67 0.022764 22.436
8.76120000 0.022760 -3.768 0.999737 -80.67 0.999737 -80.67 0.022761 22.437
8.76125000 0.022757 -3.770 0.999737 -80.67 0.999737 -80.67 0.022759 22.438
8.76130000 0.022754 -3.772 0.999737 -80.67 0.999737 -80.67 0.022756 22.439
8.76135000 0.022751 -3.775 0.999737 -80.68 0.999737 -80.68 0.022753 22.440
8.76140000 0.022749 -3.777 0.999737 -80.68 0.999737 -80.68 0.022750 22.441
8.76145000 0.022746 -3.780 0.999737 -80.68 0.999737 -80.68 0.022747 22.442
8.76150000 0.022743 -3.782 0.999737 -80.68 0.999737 -80.68 0.022744 22.443
8.76155000 0.022740 -3.784 0.999737 -80.68 0.999737 -80.68 0.022742 22.445
8.76160000 0.022737 -3.787 0.999737 -80.68 0.999737 -80.68 0.022739 22.446
8.76165000 0.022734 -3.789 0.999737 -80.68 0.999737 -80.68 0.022736 22.447
8.76170000 0.022731 -3.792 0.999737 -80.68 0.999737 -80.68 0.022733 22.448
8.76175000 0.022729 -3.794 0.999737 -80.68 0.999737 -80.68 0.022730 22.449
8.76180000 0.022726 -3.796 0.999737 -80.68 0.999737 -80.68 0.022727 22.450
8.76185000 0.022723 -3.799 0.999737 -80.68 0.999737 -80.68 0.022724 22.451
8.76190000 0.022720 -3.801 0.999737 -80.68 0.999737 -80.68 0.022722 22.453
8.76195000 0.022717 -3.804 0.999738 -80.68 0.999738 -80.68 0.022719 22.454
8.76200000 0.022714 -3.806 0.999738 -80.68 0.999738 -80.68 0.022716 22.455
8.76205000 0.022711 -3.808 0.999738 -80.68 0.999738 -80.68 0.022713 22.456
8.76210000 0.022708 -3.811 0.999738 -80.69 0.999738 -80.69 0.022710 22.457
8.76215000 0.022706 -3.813 0.999738 -80.69 0.999738 -80.69 0.022707 22.458
8.76220000 0.022703 -3.816 0.999738 -80.69 0.999738 -80.69 0.022704 22.460
8.76225000 0.022700 -3.818 0.999738 -80.69 0.999738 -80.69 0.022701 22.461
8.76230000 0.022697 -3.820 0.999738 -80.69 0.999738 -80.69 0.022698 22.462
8.76235000 0.022694 -3.823 0.999738 -80.69 0.999738 -80.69 0.022695 22.463
8.76240000 0.022691 -3.825 0.999738 -80.69 0.999738 -80.69 0.022693 22.464
8.76245000 0.022688 -3.828 0.999738 -80.69 0.999738 -80.69 0.022690 22.465
8.76250000 0.022685 -3.830 0.999738 -80.69 0.999738 -80.69 0.022687 22.467
8.76255000 0.022682 -3.833 0.999738 -80.69 0.999738 -80.69 0.022684 22.468
8.76260000 0.022679 -3.835 0.999738 -80.69 0.999738 -80.69 0.022681 22.469
8.76265000 0.022676 -3.838 0.999738 -80.69 0.999738 -80.69 0.022678 22.470
8.76270000 0.022673 -3.840 0.999739 -80.69 0.999739 -80.69 0.022675 22.471
8.76275000 0.022670 -3.843 0.999739 -80.69 0.999739 -80.69 0.022672 22.473
8.76280000 0.022667 -3.845 0.999739 -80.69 0.999739 -80.69 0.022669 22.474
8.76285000 0.022664 -3.847 0.999739 -80.69 0.999739 -80.69 0.022666 22.475
8.76290000 0.022662 -3.850 0.999739 -80.70 0.999739 -80.70 0.022663 22.476
8.76295000 0.022659 -3.852 0.999739 -80.70 0.999739 -80.70 0.022660 22.477
8.76300000 0.022656 -3.855 0.999739 -80.70 0.999739 -80.70 0.022657 22.479
8.76305000 0.022653 -3.857 0.999739 -80.70 0.999739 -80.70 0.022654 22.480
8.76310000 0.022650 -3.860 0.999739 -80.70 0.999739 -80.70 0.022651 22.481
8.76315000 0.022647 -3.862 0.999739 -80.70 0.999739 -80.70 0.022648 22.482
8.76320000 0.022644 -3.865 0.999739 -80.70 0.999739 -80.70 0.022645 22.483
8.76325000 0.022641 -3.867 0.999739 -80.70 0.999739 -80.70 0.022642 22.485
8.76330000 0.022638 -3.870 0.999739 -80.70 0.999739 -80.70 0.022639 22.486
8.76335000 0.022635 -3.872 0.999739 -80.70 0.999739 -80.70 0.022636 22.487
8.76340000 0.022632 -3.875 0.999739 -80.70 0.999739 -80.70 0.022633 22.488
8.76345000 0.022629 -3.877 0.999739 -80.70 0.999739 -80.70 0.022630 22.490
8.76350000 0.022626 -3.880 0.999740 -80.70 0.999740 -80.70 0.022627 22.491
8.76355000 0.022623 -3.882 0.999740 -80.70 0.999740 -80.70 0.022624 22.492
8.76360000 0.022620 -3.885 0.999740 -80.70 0.999740 -80.70 0.022621 22.493
8.76365000 0.022616 -3.887 0.999740 -80.70 0.999740 -80.70 0.022618 22.495
8.76370000 0.022613 -3.890 0.999740 -80.71 0.999740 -80.71 0.022615 22.496
8.76375000 0.022610 -3.893 0.999740 -80.71 0.999740 -80.71 0.022612 22.497
8.76380000 0.022607 -3.895 0.999740 -80.71 0.999740 -80.71 0.022609 22.498
8.76385000 0.022604 -3.898 0.999740 -80.71 0.999740 -80.71 0.022606 22.500
8.76390000 0.022601 -3.900 0.999740 -80.71 0.999740 -80.71 0.022603 22.501
8.76395000 0.022598 -3.903 0.999740 -80.71 0.999740 -80.71 0.022600 22.502
8.76400000 0.022595 -3.905 0.999740 -80.71 0.999740 -80.71 0.022597 22.503
8.76405000 0.022592 -3.908 0.999740 -80.71 0.999740 -80.71 0.022594 22.505
8.76410000 0.022589 -3.910 0.999740 -80.71 0.999740 -80.71 0.022591 22.506
8.76415000 0.022586 -3.913 0.999740 -80.71 0.999740 -80.71 0.022587 22.507
8.76420000 0.022583 -3.915 0.999741 -80.71 0.999741 -80.71 0.022584 22.509
8.76425000 0.022580 -3.918 0.999741 -80.71 0.999741 -80.71 0.022581 22.510
8.76430000 0.022577 -3.921 0.999741 -80.71 0.999741 -80.71 0.022578 22.511
8.76435000 0.022573 -3.923 0.999741 -80.71 0.999741 -80.71 0.022575 22.512
8.76440000 0.022570 -3.926 0.999741 -80.71 0.999741 -80.71 0.022572 22.514
8.76445000 0.022567 -3.928 0.999741 -80.72 0.999741 -80.72 0.022569 22.515
8.76450000 0.022564 -3.931 0.999741 -80.72 0.999741 -80.72 0.022566 22.516
8.76455000 0.022561 -3.934 0.999741 -80.72 0.999741 -80.72 0.022563 22.518
8.76460000 0.022558 -3.936 0.999741 -80.72 0.999741 -80.72 0.022559 22.519
8.76465000 0.022555 -3.939 0.999741 -80.72 0.999741 -80.72 0.022556 22.520
8.76470000 0.022552 -3.941 0.999741 -80.72 0.999741 -80.72 0.022553 22.522
8.76475000 0.022548 -3.944 0.999741 -80.72 0.999741 -80.72 0.022550 22.523
8.76480000 0.022545 -3.947 0.999741 -80.72 0.999741 -80.72 0.022547 22.524
8.76485000 0.022542 -3.949 0.999741 -80.72 0.999741 -80.72 0.022544 22.526
8.76490000 0.022539 -3.952 0.999741 -80.72 0.999741 -80.72 0.022541 22.527
8.76495000 0.022536 -3.954 0.999742 -80.72 0.999742 -80.72 0.022537 22.528
8.76500000 0.022533 -3.957 0.999742 -80.72 0.999742 -80.72 0.022534 22.530
8.76505000 0.022529 -3.960 0.999742 -80.72 0.999742 -80.72 0.022531 22.531
8.76510000 0.022526 -3.962 0.999742 -80.72 0.999742 -80.72 0.022528 22.532
8.76515000 0.022523 -3.965 0.999742 -80.72 0.999742 -80.72 0.022525 22.534
8.76520000 0.022520 -3.968 0.999742 -80.72 0.999742 -80.72 0.022522 22.535
8.76525000 0.022517 -3.970 0.999742 -80.73 0.999742 -80.73 0.022518 22.536
8.76530000 0.022514 -3.973 0.999742 -80.73 0.999742 -80.73 0.022515 22.538
8.76535000 0.022510 -3.975 0.999742 -80.73 0.999742 -80.73 0.022512 22.539
8.76540000 0.022507 -3.978 0.999742 -80.73 0.999742 -80.73 0.022509 22.540
8.76545000 0.022504 -3.981 0.999742 -80.73 0.999742 -80.73 0.022506 22.542
8.76550000 0.022501 -3.983 0.999742 -80.73 0.999742 -80.73 0.022502 22.543
8.76555000 0.022497 -3.986 0.999742 -80.73 0.999742 -80.73 0.022499 22.544
8.76560000 0.022494 -3.989 0.999742 -80.73 0.999742 -80.73 0.022496 22.546
8.76565000 0.022491 -3.991 0.999743 -80.73 0.999743 -80.73 0.022493 22.547
8.76570000 0.022488 -3.994 0.999743 -80.73 0.999743 -80.73 0.022489 22.549
8.76575000 0.022485 -3.997 0.999743 -80.73 0.999743 -80.73 0.022486 22.550
8.76580000 0.022481 -4.000 0.999743 -80.73 0.999743 -80.73 0.022483 22.551
8.76585000 0.022478 -4.002 0.999743 -80.73 0.999743 -80.73 0.022480 22.553
8.76590000 0.022475 -4.005 0.999743 -80.73 0.999743 -80.73 0.022476 22.554
8.76595000 0.022471 -4.008 0.999743 -80.73 0.999743 -80.73 0.022473 22.556
8.76600000 0.022468 -4.010 0.999743 -80.74 0.999743 -80.74 0.022470 22.557
8.76605000 0.022465 -4.013 0.999743 -80.74 0.999743 -80.74 0.022467 22.558
8.76610000 0.022462 -4.016 0.999743 -80.74 0.999743 -80.74 0.022463 22.560
8.76615000 0.022458 -4.018 0.999743 -80.74 0.999743 -80.74 0.022460 22.561
8.76620000 0.022455 -4.021 0.999743 -80.74 0.999743 -80.74 0.022457 22.563
8.76625000 0.022452 -4.024 0.999743 -80.74 0.999743 -80.74 0.022453 22.564
8.76630000 0.022448 -4.027 0.999743 -80.74 0.999743 -80.74 0.022450 22.565
8.76635000 0.022445 -4.029 0.999744 -80.74 0.999744 -80.74 0.022447 22.567
8.76640000 0.022442 -4.032 0.999744 -80.74 0.999744 -80.74 0.022443 22.568
8.76645000 0.022438 -4.035 0.999744 -80.74 0.999744 -80.74 0.022440 22.570
8.76650000 0.022435 -4.038 0.999744 -80.74 0.999744 -80.74 0.022437 22.571
8.76655000 0.022432 -4.040 0.999744 -80.74 0.999744 -80.74 0.022433 22.573
8.76660000 0.022428 -4.043 0.999744 -80.74 0.999744 -80.74 0.022430 22.574
8.76665000 0.022425 -4.046 0.999744 -80.74 0.999744 -80.74 0.022427 22.576
8.76670000 0.022422 -4.049 0.999744 -80.74 0.999744 -80.74 0.022423 22.577
8.76675000 0.022418 -4.051 0.999744 -80.75 0.999744 -80.75 0.022420 22.578
8.76680000 0.022415 -4.054 0.999744 -80.75 0.999744 -80.75 0.022417 22.580
8.76685000 0.022412 -4.057 0.999744 -80.75 0.999744 -80.75 0.022413 22.581
8.76690000 0.022408 -4.060 0.999744 -80.75 0.999744 -80.75 0.022410 22.583
8.76695000 0.022405 -4.062 0.999744 -80.75 0.999744 -80.75 0.022407 22.584
8.76700000 0.022402 -4.065 0.999744 -80.75 0.999744 -80.75 0.022403 22.586
8.76705000 0.022398 -4.068 0.999745 -80.75 0.999745 -80.75 0.022400 22.587
8.76710000 0.022395 -4.071 0.999745 -80.75 0.999745 -80.75 0.022396 22.589
8.76715000 0.022391 -4.074 0.999745 -80.75 0.999745 -80.75 0.022393 22.590
8.76720000 0.022388 -4.076 0.999745 -80.75 0.999745 -80.75 0.022390 22.592
8.76725000 0.022385 -4.079 0.999745 -80.75 0.999745 -80.75 0.022386 22.593
8.76730000 0.022381 -4.082 0.999745 -80.75 0.999745 -80.75 0.022383 22.595
8.76735000 0.022378 -4.085 0.999745 -80.75 0.999745 -80.75 0.022379 22.596
8.76740000 0.022374 -4.088 0.999745 -80.75 0.999745 -80.75 0.022376 22.598
8.76745000 0.022371 -4.091 0.999745 -80.75 0.999745 -80.75 0.022373 22.599
8.76750000 0.022367 -4.093 0.999745 -80.76 0.999745 -80.76 0.022369 22.601
8.76755000 0.022364 -4.096 0.999745 -80.76 0.999745 -80.76 0.022366 22.602
8.76760000 0.022361 -4.099 0.999745 -80.76 0.999745 -80.76 0.022362 22.604
8.76765000 0.022357 -4.102 0.999745 -80.76 0.999745 -80.76 0.022359 22.605
8.76770000 0.022354 -4.105 0.999746 -80.76 0.999746 -80.76 0.022355 22.607
8.76775000 0.022350 -4.108 0.999746 -80.76 0.999746 -80.76 0.022352 22.608
8.76780000 0.022347 -4.110 0.999746 -80.76 0.999746 -80.76 0.022348 22.610
8.76785000 0.022343 -4.113 0.999746 -80.76 0.999746 -80.76 0.022345 22.611
8.76790000 0.022340 -4.116 0.999746 -80.76 0.999746 -80.76 0.022341 22.613
8.76795000 0.022336 -4.119 0.999746 -80.76 0.999746 -80.76 0.022338 22.614
8.76800000 0.022333 -4.122 0.999746 -80.76 0.999746 -80.76 0.022334 22.616
8.76805000 0.022329 -4.125 0.999746 -80.76 0.999746 -80.76 0.022331 22.618
8.76810000 0.022326 -4.128 0.999746 -80.76 0.999746 -80.76 0.022327 22.619
8.76815000 0.022322 -4.131 0.999746 -80.76 0.999746 -80.76 0.022324 22.621
8.76820000 0.022319 -4.133 0.999746 -80.76 0.999746 -80.76 0.022320 22.622
8.76825000 0.022315 -4.136 0.999746 -80.77 0.999746 -80.77 0.022317 22.624
8.76830000 0.022312 -4.139 0.999746 -80.77 0.999746 -80.77 0.022313 22.625
8.76835000 0.022308 -4.142 0.999746 -80.77 0.999746 -80.77 0.022310 22.627
8.76840000 0.022305 -4.145 0.999747 -80.77 0.999747 -80.77 0.022306 22.629
8.76845000 0.022301 -4.148 0.999747 -80.77 0.999747 -80.77 0.022303 22.630
8.76850000 0.022297 -4.151 0.999747 -80.77 0.999747 -80.77 0.022299 22.632
8.76855000 0.022294 -4.154 0.999747 -80.77 0.999747 -80.77 0.022296 22.633
8.76860000 0.022290 -4.157 0.999747 -80.77 0.999747 -80.77 0.022292 22.635
8.76865000 0.022287 -4.160 0.999747 -80.77 0.999747 -80.77 0.022288 22.636
8.76870000 0.022283 -4.163 0.999747 -80.77 0.999747 -80.77 0.022285 22.638
8.76875000 0.022280 -4.166 0.999747 -80.77 0.999747 -80.77 0.022281 22.640
8.76880000 0.022276 -4.169 0.999747 -80.77 0.999747 -80.77 0.022278 22.641
8.76885000 0.022272 -4.171 0.999747 -80.77 0.999747 -80.77 0.022274 22.643
8.76890000 0.022269 -4.174 0.999747 -80.77 0.999747 -80.77 0.022271 22.645
8.76895000 0.022265 -4.177 0.999747 -80.77 0.999747 -80.77 0.022267 22.646
8.76900000 0.022262 -4.180 0.999747 -80.78 0.999747 -80.78 0.022263 22.648
8.76905000 0.022258 -4.183 0.999748 -80.78 0.999748 -80.78 0.022260 22.649
8.76910000 0.022254 -4.186 0.999748 -80.78 0.999748 -80.78 0.022256 22.651
8.76915000 0.022251 -4.189 0.999748 -80.78 0.999748 -80.78 0.022252 22.653
8.76920000 0.022247 -4.192 0.999748 -80.78 0.999748 -80.78 0.022249 22.654
8.76925000 0.022243 -4.195 0.999748 -80.78 0.999748 -80.78 0.022245 22.656
8.76930000 0.022240 -4.198 0.999748 -80.78 0.999748 -80.78 0.022242 22.658
8.76935000 0.022236 -4.201 0.999748 -80.78 0.999748 -80.78 0.022238 22.659
8.76940000 0.022232 -4.204 0.999748 -80.78 0.999748 -80.78 0.022234 22.661
8.76945000 0.022229 -4.207 0.999748 -80.78 0.999748 -80.78 0.022231 22.663
8.76950000 0.022225 -4.210 0.999748 -80.78 0.999748 -80.78 0.022227 22.664
8.76955000 0.022221 -4.213 0.999748 -80.78 0.999748 -80.78 0.022223 22.666
8.76960000 0.022218 -4.216 0.999748 -80.78 0.999748 -80.78 0.022219 22.668
8.76965000 0.022214 -4.219 0.999749 -80.78 0.999749 -80.78 0.022216 22.669
8.76970000 0.022210 -4.222 0.999749 -80.78 0.999749 -80.78 0.022212 22.671
8.76975000 0.022207 -4.225 0.999749 -80.79 0.999749 -80.79 0.022208 22.673
8.76980000 0.022203 -4.228 0.999749 -80.79 0.999749 -80.79 0.022205 22.674
8.76985000 0.022199 -4.232 0.999749 -80.79 0.999749 -80.79 0.022201 22.676
8.76990000 0.022195 -4.235 0.999749 -80.79 0.999749 -80.79 0.022197 22.678
8.76995000 0.022192 -4.238 0.999749 -80.79 0.999749 -80.79 0.022193 22.679
8.77000000 0.022188 -4.241 0.999749 -80.79 0.999749 -80.79 0.022190 22.681
8.77005000 0.022184 -4.244 0.999749 -80.79 0.999749 -80.79 0.022186 22.683
8.77010000 0.022181 -4.247 0.999749 -80.79 0.999749 -80.79 0.022182 22.685
8.77015000 0.022177 -4.250 0.999749 -80.79 0.999749 -80.79 0.022178 22.686
8.77020000 0.022173 -4.253 0.999749 -80.79 0.999749 -80.79 0.022175 22.688
8.77025000 0.022169 -4.256 0.999749 -80.79 0.999749 -80.79 0.022171 22.690
8.77030000 0.022165 -4.259 0.999750 -80.79 0.999750 -80.79 0.022167 22.692
8.77035000 0.022162 -4.262 0.999750 -80.79 0.999750 -80.79 0.022163 22.693
8.77040000 0.022158 -4.265 0.999750 -80.79 0.999750 -80.79 0.022160 22.695
8.77045000 0.022154 -4.269 0.999750 -80.80 0.999750 -80.80 0.022156 22.697
8.77050000 0.022150 -4.272 0.999750 -80.80 0.999750 -80.80 0.022152 22.699
8.77055000 0.022146 -4.275 0.999750 -80.80 0.999750 -80.80 0.022148 22.700
8.77060000 0.022143 -4.278 0.999750 -80.80 0.999750 -80.80 0.022144 22.702
8.77065000 0.022139 -4.281 0.999750 -80.80 0.999750 -80.80 0.022141 22.704
8.77070000 0.022135 -4.284 0.999750 -80.80 0.999750 -80.80 0.022137 22.706
8.77075000 0.022131 -4.287 0.999750 -80.80 0.999750 -80.80 0.022133 22.707
8.77080000 0.022127 -4.290 0.999750 -80.80 0.999750 -80.80 0.022129 22.709
8.77085000 0.022123 -4.294 0.999750 -80.80 0.999750 -80.80 0.022125 22.711
8.77090000 0.022120 -4.297 0.999751 -80.80 0.999751 -80.80 0.022121 22.713
8.77095000 0.022116 -4.300 0.999751 -80.80 0.999751 -80.80 0.022117 22.714
8.77100000 0.022112 -4.303 0.999751 -80.80 0.999751 -80.80 0.022114 22.716
8.77105000 0.022108 -4.306 0.999751 -80.80 0.999751 -80.80 0.022110 22.718
8.77110000 0.022104 -4.309 0.999751 -80.80 0.999751 -80.80 0.022106 22.720
8.77115000 0.022100 -4.313 0.999751 -80.80 0.999751 -80.80 0.022102 22.722
8.77120000 0.022096 -4.316 0.999751 -80.81 0.999751 -80.81 0.022098 22.724
8.77125000 0.022092 -4.319 0.999751 -80.81 0.999751 -80.81 0.022094 22.725
8.77130000 0.022088 -4.322 0.999751 -80.81 0.999751 -80.81 0.022090 22.727
8.77135000 0.022085 -4.325 0.999751 -80.81 0.999751 -80.81 0.022086 22.729
8.77140000 0.022081 -4.329 0.999751 -80.81 0.999751 -80.81 0.022082 22.731
8.77145000 0.022077 -4.332 0.999751 -80.81 0.999751 -80.81 0.022079 22.733
8.77150000 0.022073 -4.335 0.999752 -80.81 0.999752 -80.81 0.022075 22.734
8.77155000 0.022069 -4.338 0.999752 -80.81 0.999752 -80.81 0.022071 22.736
8.77160000 0.022065 -4.342 0.999752 -80.81 0.999752 -80.81 0.022067 22.738
8.77165000 0.022061 -4.345 0.999752 -80.81 0.999752 -80.81 0.022063 22.740
8.77170000 0.022057 -4.348 0.999752 -80.81 0.999752 -80.81 0.022059 22.742
8.77175000 0.022053 -4.351 0.999752 -80.81 0.999752 -80.81 0.022055 22.744
8.77180000 0.022049 -4.354 0.999752 -80.81 0.999752 -80.81 0.022051 22.746
8.77185000 0.022045 -4.358 0.999752 -80.81 0.999752 -80.81 0.022047 22.748
8.77190000 0.022041 -4.361 0.999752 -80.82 0.999752 -80.82 0.022043 22.749
8.77195000 0.022037 -4.364 0.999752 -80.82 0.999752 -80.82 0.022039 22.751
8.77200000 0.022033 -4.368 0.999752 -80.82 0.999752 -80.82 0.022035 22.753
8.77205000 0.022029 -4.371 0.999752 -80.82 0.999752 -80.82 0.022031 22.755
8.77210000 0.022025 -4.374 0.999753 -80.82 0.999753 -80.82 0.022027 22.757
8.77215000 0.022021 -4.377 0.999753 -80.82 0.999753 -80.82 0.022023 22.759
8.77220000 0.022017 -4.381 0.999753 -80.82 0.999753 -80.82 0.022019 22.761
8.77225000 0.022013 -4.384 0.999753 -80.82 0.999753 -80.82 0.022015 22.763
8.77230000 0.022009 -4.387 0.999753 -80.82 0.999753 -80.82 0.022011 22.765
8.77235000 0.022005 -4.391 0.999753 -80.82 0.999753 -80.82 0.022007 22.767
8.77240000 0.022001 -4.394 0.999753 -80.82 0.999753 -80.82 0.022003 22.768
8.77245000 0.021997 -4.397 0.999753 -80.82 0.999753 -80.82 0.021999 22.770
8.77250000 0.021993 -4.401 0.999753 -80.82 0.999753 -80.82 0.021994 22.772
8.77255000 0.021989 -4.404 0.999753 -80.82 0.999753 -80.82 0.021990 22.774
8.77260000 0.021984 -4.407 0.999753 -80.83 0.999753 -80.83 0.021986 22.776
8.77265000 0.021980 -4.411 0.999754 -80.83 0.999754 -80.83 0.021982 22.778
8.77270000 0.021976 -4.414 0.999754 -80.83 0.999754 -80.83 0.021978 22.780
8.77275000 0.021972 -4.417 0.999754 -80.83 0.999754 -80.83 0.021974 22.782
8.77280000 0.021968 -4.421 0.999754 -80.83 0.999754 -80.83 0.021970 22.784
8.77285000 0.021964 -4.424 0.999754 -80.83 0.999754 -80.83 0.021966 22.786
8.77290000 0.021960 -4.427 0.999754 -80.83 0.999754 -80.83 0.021962 22.788
8.77295000 0.021956 -4.431 0.999754 -80.83 0.999754 -80.83 0.021958 22.790
8.77300000 0.021952 -4.434 0.999754 -80.83 0.999754 -80.83 0.021953 22.792
8.77305000 0.021947 -4.438 0.999754 -80.83 0.999754 -80.83 0.021949 22.794
8.77310000 0.021943 -4.441 0.999754 -80.83 0.999754 -80.83 0.021945 22.796
8.77315000 0.021939 -4.444 0.999754 -80.83 0.999754 -80.83 0.021941 22.798
8.77320000 0.021935 -4.448 0.999754 -80.83 0.999754 -80.83 0.021937 22.800
8.77325000 0.021931 -4.451 0.999755 -80.83 0.999755 -80.83 0.021933 22.802
8.77330000 0.021927 -4.455 0.999755 -80.84 0.999755 -80.84 0.021928 22.804
8.77335000 0.021922 -4.458 0.999755 -80.84 0.999755 -80.84 0.021924 22.806
8.77340000 0.021918 -4.462 0.999755 -80.84 0.999755 -80.84 0.021920 22.808
8.77345000 0.021914 -4.465 0.999755 -80.84 0.999755 -80.84 0.021916 22.810
8.77350000 0.021910 -4.468 0.999755 -80.84 0.999755 -80.84 0.021912 22.812
8.77355000 0.021906 -4.472 0.999755 -80.84 0.999755 -80.84 0.021907 22.814
8.77360000 0.021901 -4.475 0.999755 -80.84 0.999755 -80.84 0.021903 22.816
8.77365000 0.021897 -4.479 0.999755 -80.84 0.999755 -80.84 0.021899 22.818
8.77370000 0.021893 -4.482 0.999755 -80.84 0.999755 -80.84 0.021895 22.820
8.77375000 0.021889 -4.486 0.999755 -80.84 0.999755 -80.84 0.021890 22.822
8.77380000 0.021884 -4.489 0.999756 -80.84 0.999756 -80.84 0.021886 22.824
8.77385000 0.021880 -4.493 0.999756 -80.84 0.999756 -80.84 0.021882 22.826
8.77390000 0.021876 -4.496 0.999756 -80.84 0.999756 -80.84 0.021878 22.828
8.77395000 0.021872 -4.500 0.999756 -80.84 0.999756 -80.84 0.021873 22.830
8.77400000 0.021867 -4.503 0.999756 -80.85 0.999756 -80.85 0.021869 22.833
8.77405000 0.021863 -4.507 0.999756 -80.85 0.999756 -80.85 0.021865 22.835
8.77410000 0.021859 -4.510 0.999756 -80.85 0.999756 -80.85 0.021861 22.837
8.77415000 0.021854 -4.514 0.999756 -80.85 0.999756 -80.85 0.021856 22.839
8.77420000 0.021850 -4.517 0.999756 -80.85 0.999756 -80.85 0.021852 22.841
8.77425000 0.021846 -4.521 0.999756 -80.85 0.999756 -80.85 0.021848 22.843
8.77430000 0.021842 -4.524 0.999756 -80.85 0.999756 -80.85 0.021843 22.845
8.77435000 0.021837 -4.528 0.999757 -80.85 0.999757 -80.85 0.021839 22.847
8.77440000 0.021833 -4.531 0.999757 -80.85 0.999757 -80.85 0.021835 22.849
8.77445000 0.021829 -4.535 0.999757 -80.85 0.999757 -80.85 0.021830 22.851
8.77450000 0.021824 -4.539 0.999757 -80.85 0.999757 -80.85 0.021826 22.854
8.77455000 0.021820 -4.542 0.999757 -80.85 0.999757 -80.85 0.021822 22.856
8.77460000 0.021816 -4.546 0.999757 -80.85 0.999757 -80.85 0.021817 22.858
8.77465000 0.021811 -4.549 0.999757 -80.85 0.999757 -80.85 0.021813 22.860
8.77470000 0.021807 -4.553 0.999757 -80.86 0.999757 -80.86 0.021809 22.862
8.77475000 0.021802 -4.556 0.999757 -80.86 0.999757 -80.86 0.021804 22.864
8.77480000 0.021798 -4.560 0.999757 -80.86 0.999757 -80.86 0.021800 22.866
8.77485000 0.021794 -4.564 0.999757 -80.86 0.999757 -80.86 0.021796 22.868
8.77490000 0.021789 -4.567 0.999758 -80.86 0.999758 -80.86 0.021791 22.871
8.77495000 0.021785 -4.571 0.999758 -80.86 0.999758 -80.86 0.021787 22.873
8.77500000 0.021781 -4.574 0.999758 -80.86 0.999758 -80.86 0.021783 22.875
8.77505000 0.021776 -4.578 0.999758 -80.86 0.999758 -80.86 0.021778 22.877
8.77510000 0.021772 -4.582 0.999758 -80.86 0.999758 -80.86 0.021774 22.879
8.77515000 0.021767 -4.585 0.999758 -80.86 0.999758 -80.86 0.021769 22.881
8.77520000 0.021763 -4.589 0.999758 -80.86 0.999758 -80.86 0.021765 22.883
8.77525000 0.021759 -4.592 0.999758 -80.86 0.999758 -80.86 0.021761 22.886
8.77530000 0.021754 -4.596 0.999758 -80.86 0.999758 -80.86 0.021756 22.888
8.77535000 0.021750 -4.600 0.999758 -80.86 0.999758 -80.86 0.021752 22.890
8.77540000 0.021746 -4.603 0.999758 -80.87 0.999758 -80.87 0.021747 22.892
8.77545000 0.021741 -4.607 0.999759 -80.87 0.999759 -80.87 0.021743 22.894
8.77550000 0.021737 -4.611 0.999759 -80.87 0.999759 -80.87 0.021739 22.896
8.77555000 0.021732 -4.614 0.999759 -80.87 0.999759 -80.87 0.021734 22.898
8.77560000 0.021728 -4.618 0.999759 -80.87 0.999759 -80.87 0.021730 22.900
8.77565000 0.021724 -4.621 0.999759 -80.87 0.999759 -80.87 0.021725 22.903
8.77570000 0.021719 -4.625 0.999759 -80.87 0.999759 -80.87 0.021721 22.905
8.77575000 0.021715 -4.629 0.999759 -80.87 0.999759 -80.87 0.021717 22.907
8.77580000 0.021710 -4.632 0.999759 -80.87 0.999759 -80.87 0.021712 22.909
8.77585000 0.021706 -4.636 0.999759 -80.87 0.999759 -80.87 0.021708 22.911
8.77590000 0.021702 -4.640 0.999759 -80.87 0.999759 -80.87 0.021704 22.913
8.77595000 0.021697 -4.643 0.999759 -80.87 0.999759 -80.87 0.021699 22.915
8.77600000 0.021693 -4.647 0.999759 -80.87 0.999759 -80.87 0.021695 22.917
8.77605000 0.021689 -4.650 0.999760 -80.88 0.999760 -80.88 0.021691 22.919
8.77610000 0.021685 -4.654 0.999760 -80.88 0.999760 -80.88 0.021687 22.921
8.77615000 0.021680 -4.657 0.999760 -80.88 0.999760 -80.88 0.021682 22.923
8.77620000 0.021676 -4.661 0.999760 -80.88 0.999760 -80.88 0.021678 22.925
8.77625000 0.021672 -4.665 0.999760 -80.88 0.999760 -80.88 0.021674 22.927
8.77630000 0.021668 -4.668 0.999760 -80.88 0.999760 -80.88 0.021670 22.929
8.77635000 0.021664 -4.672 0.999760 -80.88 0.999760 -80.88 0.021666 22.931
8.77640000 0.021660 -4.675 0.999760 -80.88 0.999760 -80.88 0.021662 22.932
8.77645000 0.021656 -4.678 0.999760 -80.88 0.999760 -80.88 0.021658 22.934
8.77650000 0.021652 -4.682 0.999760 -80.88 0.999760 -80.88 0.021654 22.936
8.77655000 0.021648 -4.685 0.999760 -80.88 0.999760 -80.88 0.021650 22.937
8.77660000 0.021645 -4.688 0.999760 -80.88 0.999760 -80.88 0.021647 22.938
8.77665000 0.021642 -4.692 0.999760 -80.89 0.999760 -80.89 0.021643 22.940
8.77670000 0.021638 -4.695 0.999760 -80.89 0.999760 -80.89 0.021640 22.940
8.77675000 0.021636 -4.698 0.999760 -80.89 0.999760 -80.89 0.021637 22.941
8.77680000 0.021633 -4.700 0.999760 -80.89 0.999760 -80.89 0.021635 22.941
8.77685000 0.021631 -4.703 0.999760 -80.89 0.999760 -80.89 0.021632 22.941
8.77690000 0.021630 -4.705 0.999759 -80.89 0.999759 -80.89 0.021631 22.940
8.77695000 0.021630 -4.708 0.999759 -80.89 0.999759 -80.89 0.021630 22.938
8.77700000 0.021631 -4.709 0.999758 -80.89 0.999758 -80.89 0.021631 22.934
8.77705000 0.021634 -4.711 0.999757 -80.89 0.999757 -80.89 0.021634 22.927
8.77710000 0.021642 -4.712 0.999755 -80.89 0.999755 -80.89 0.021641 22.915
8.77715000 0.021657 -4.713 0.999751 -80.90 0.999751 -80.90 0.021654 22.892
8.77720000 0.021690 -4.721 0.999739 -80.90 0.999739 -80.90 0.021681 22.839
8.77725000 0.021780 -4.781 0.999693 -80.90 0.999693 -80.90 0.021748 22.663
8.77730000 0.021997 -6.005 0.999181 -80.91 0.999181 -80.91 0.021694 21.293
8.77735000 0.021317 -5.281 0.999639 -80.88 0.999639 -80.88 0.021248 22.875
8.77740000 0.021416 -4.937 0.999736 -80.89 0.999736 -80.89 0.021402 23.030
8.77745000 0.021454 -4.863 0.999752 -80.89 0.999752 -80.89 0.021449 23.039
8.77750000 0.021472 -4.836 0.999757 -80.89 0.999757 -80.89 0.021470 23.037
8.77755000 0.021480 -4.824 0.999760 -80.89 0.999760 -80.89 0.021480 23.035
8.77760000 0.021484 -4.818 0.999761 -80.90 0.999761 -80.90 0.021485 23.034
8.77765000 0.021486 -4.816 0.999762 -80.90 0.999762 -80.90 0.021486 23.033
8.77770000 0.021485 -4.815 0.999762 -80.90 0.999762 -80.90 0.021486 23.033
8.77775000 0.021484 -4.816 0.999763 -80.90 0.999763 -80.90 0.021485 23.033
8.77780000 0.021482 -4.817 0.999763 -80.90 0.999763 -80.90 0.021483 23.034
8.77785000 0.021479 -4.819 0.999763 -80.90 0.999763 -80.90 0.021481 23.035
8.77790000 0.021476 -4.822 0.999763 -80.90 0.999763 -80.90 0.021478 23.037
8.77795000 0.021473 -4.824 0.999764 -80.90 0.999764 -80.90 0.021475 23.038
8.77800000 0.021469 -4.827 0.999764 -80.90 0.999764 -80.90 0.021471 23.040
8.77805000 0.021466 -4.830 0.999764 -80.90 0.999764 -80.90 0.021467 23.042
8.77810000 0.021462 -4.833 0.999764 -80.90 0.999764 -80.90 0.021464 23.044
8.77815000 0.021458 -4.837 0.999764 -80.91 0.999764 -80.91 0.021459 23.046
8.77820000 0.021453 -4.840 0.999764 -80.91 0.999764 -80.91 0.021455 23.048
8.77825000 0.021449 -4.844 0.999764 -80.91 0.999764 -80.91 0.021451 23.050
8.77830000 0.021445 -4.848 0.999765 -80.91 0.999765 -80.91 0.021447 23.052
8.77835000 0.021440 -4.851 0.999765 -80.91 0.999765 -80.91 0.021442 23.054
8.77840000 0.021436 -4.855 0.999765 -80.91 0.999765 -80.91 0.021437 23.057
8.77845000 0.021431 -4.859 0.999765 -80.91 0.999765 -80.91 0.021433 23.059
8.77850000 0.021426 -4.863 0.999765 -80.91 0.999765 -80.91 0.021428 23.061
8.77855000 0.021422 -4.867 0.999765 -80.91 0.999765 -80.91 0.021423 23.064
8.77860000 0.021417 -4.871 0.999765 -80.91 0.999765 -80.91 0.021419 23.066
8.77865000 0.021412 -4.875 0.999765 -80.91 0.999765 -80.91 0.021414 23.069
8.77870000 0.021407 -4.879 0.999765 -80.91 0.999765 -80.91 0.021409 23.071
8.77875000 0.021402 -4.883 0.999766 -80.92 0.999766 -80.92 0.021404 23.074
8.77880000 0.021397 -4.887 0.999766 -80.92 0.999766 -80.92 0.021399 23.076
8.77885000 0.021392 -4.891 0.999766 -80.92 0.999766 -80.92 0.021394 23.079
8.77890000 0.021387 -4.895 0.999766 -80.92 0.999766 -80.92 0.021389 23.081
8.77895000 0.021382 -4.899 0.999766 -80.92 0.999766 -80.92 0.021384 23.084
8.77900000 0.021377 -4.903 0.999766 -80.92 0.999766 -80.92 0.021379 23.087
8.77905000 0.021372 -4.907 0.999766 -80.92 0.999766 -80.92 0.021374 23.089
8.77910000 0.021367 -4.912 0.999766 -80.92 0.999766 -80.92 0.021369 23.092
8.77915000 0.021362 -4.916 0.999766 -80.92 0.999766 -80.92 0.021364 23.095
8.77920000 0.021357 -4.920 0.999767 -80.92 0.999767 -80.92 0.021359 23.097
8.77925000 0.021352 -4.924 0.999767 -80.92 0.999767 -80.92 0.021354 23.100
8.77930000 0.021347 -4.928 0.999767 -80.92 0.999767 -80.92 0.021349 23.103
8.77935000 0.021341 -4.933 0.999767 -80.92 0.999767 -80.92 0.021344 23.106
8.77940000 0.021336 -4.937 0.999767 -80.93 0.999767 -80.93 0.021338 23.108
8.77945000 0.021331 -4.941 0.999767 -80.93 0.999767 -80.93 0.021333 23.111
8.77950000 0.021326 -4.946 0.999767 -80.93 0.999767 -80.93 0.021328 23.114
8.77955000 0.021321 -4.950 0.999767 -80.93 0.999767 -80.93 0.021323 23.117
8.77960000 0.021315 -4.954 0.999767 -80.93 0.999767 -80.93 0.021317 23.120