! Sonnet Data File
! From: emgraph Version : 16.52
! From Project: 171117_Xmon_fullysym
! Data is De-embedded 
! Data File Written: 11/26/2017 17:14:24
!< HDATE 11/22/2017 16:48:52
!< MDATE 11/23/2017 10:16:42
!< PARAMS
!< Lj = 11.0
!< Gap = 1.0
!< Pwid = 2000.0
!< Airgap = 6.0
!< Width = 10.0
!< Lj1 = 9.3
!< END PARAMS
# GHZ S MA R 50.90000
8.750000000000000 0.0240702858585 -2.933768881834 0.9997061588286 -80.49324172358 0.9997061588303 -80.49324172343 0.0240716677311 21.961555274742
!< P1 F=8.75 Eeff=(6.44841643 -2.9796e-5) Z0=(50.9085185 1.17018e-4) R=0.0 C=0.0 
!< P2 F=8.75 Eeff=(6.44841643 -2.9796e-5) Z0=(50.9085185 1.17018e-4) R=0.0 C=0.0 
8.750100000000000 0.0240659515045 -2.937573244774 0.9997062597013 -80.49442387056 0.9997062597013 -80.49442387056 0.0240673351419 21.963012978623
8.750200000000001 0.0240616001337 -2.941388916309 0.9997063609462 -80.49560702106 0.9997063609462 -80.49560702106 0.0240629855444 21.964480070023
8.750300000000001 0.0240572316456 -2.945215958632 0.9997064625655 -80.49679118086 0.9997064625655 -80.49679118086 0.0240586188398 21.965956616491
8.750400000000001 0.0240528459347 -2.949054445861 0.9997065645610 -80.49797635620 0.9997065645610 -80.49797635620 0.0240542349228 21.967442683434
8.750500000000001 0.0240484428891 -2.952904456989 0.9997066669345 -80.49916255367 0.9997066669345 -80.49916255367 0.0240498336818 21.968938338560
8.750600000000000 0.0240440224280 -2.956766053750 0.9997067696881 -80.50034977807 0.9997067696881 -80.50034977807 0.0240454150360 21.970443633249
8.750700000000000 0.0240395844466 -2.960639312112 0.9997068728239 -80.50153803561 0.9997068728239 -80.50153803561 0.0240409788805 21.971958631316
8.750800000000000 0.0240351288359 -2.964524311297 0.9997069763447 -80.50272733272 0.9997069763447 -80.50272733272 0.0240365251062 21.973483398107
8.750900000000000 0.0240306555022 -2.968421118216 0.9997070802513 -80.50391767495 0.9997070802513 -80.50391767495 0.0240320536201 21.975017994522
8.751000000000001 0.0240261643287 -2.972329816706 0.9997071845464 -80.50510906921 0.9997071845464 -80.50510906921 0.0240275643050 21.976562490717
8.751100000000001 0.0240216552365 -2.976250468106 0.9997072892319 -80.50630152015 0.9997072892319 -80.50630152015 0.0240230570824 21.978116937470
8.751200000000001 0.0240171281009 -2.980183159470 0.9997073943098 -80.50749503518 0.9997073943098 -80.50749503518 0.0240185318275 21.979681410994
8.751300000000001 0.0240125828170 -2.984127970507 0.9997074997834 -80.50868962048 0.9997074997834 -80.50868962048 0.0240139884352 21.981255973302
8.751400000000000 0.0240080192983 -2.988084963760 0.9997076056533 -80.50988528118 0.9997076056533 -80.50988528118 0.0240094268196 21.982840683128
8.751500000000000 0.0240034374147 -2.992054232033 0.9997077119223 -80.51108202497 0.9997077119223 -80.51108202497 0.0240048468504 21.984435618027
8.751600000000000 0.0239988370663 -2.996035847940 0.9997078185920 -80.51227985775 0.9997078185920 -80.51227985775 0.0240002484282 21.986040842000
8.751700000000001 0.0239942181442 -3.000029895292 0.9997079256662 -80.51347878599 0.9997079256662 -80.51347878599 0.0239956314435 21.987656419096
8.751800000000001 0.0239895805480 -3.004036444725 0.9997080331453 -80.51467881561 0.9997080331453 -80.51467881561 0.0239909957965 21.989282416444
8.751900000000001 0.0239849241472 -3.008055590509 0.9997081410324 -80.51587995434 0.9997081410324 -80.51587995434 0.0239863413569 21.990918911732
8.752000000000001 0.0239802488455 -3.012087405831 0.9997082493297 -80.51708220787 0.9997082493297 -80.51708220787 0.0239816680279 21.992565966427
8.752100000000000 0.0239755545372 -3.016131967782 0.9997083580389 -80.51828558246 0.9997083580389 -80.51828558246 0.0239769757045 21.994223648074
8.752200000000000 0.0239708410962 -3.020189368493 0.9997084671629 -80.51949008558 0.9997084671629 -80.51949008558 0.0239722642603 21.995892032977
8.752300000000000 0.0239661084143 -3.024259687777 0.9997085767039 -80.52069572362 0.9997085767039 -80.52069572362 0.0239675335874 21.997571189695
8.752400000000000 0.0239613563653 -3.028343015742 0.9997086866637 -80.52190250403 0.9997086866637 -80.52190250403 0.0239627835600 21.999261196835
8.752500000000001 0.0239565848552 -3.032439426902 0.9997087970454 -80.52311043242 0.9997087970454 -80.52311043242 0.0239580140834 22.000962113827
8.752600000000001 0.0239517937501 -3.036549014294 0.9997089078502 -80.52431951667 0.9997089078502 -80.52431951667 0.0239532250246 22.002674025457
8.752700000000001 0.0239469829361 -3.040671866322 0.9997090190820 -80.52552976355 0.9997090190820 -80.52552976355 0.0239484162692 22.004396999913
8.752800000000001 0.0239421522963 -3.044808066272 0.9997091307420 -80.52674117996 0.9997091307420 -80.52674117996 0.0239435877008 22.006131113762
8.752900000000000 0.0239373017107 -3.048957704149 0.9997092428330 -80.52795377301 0.9997092428330 -80.52795377301 0.0239387391993 22.007876440923
8.753000000000000 0.0239324310604 -3.053120865990 0.9997093553567 -80.52916754974 0.9997093553567 -80.52916754974 0.0239338706462 22.009633058327
8.753100000000000 0.0239275402227 -3.057297644619 0.9997094683165 -80.53038251740 0.9997094683165 -80.53038251740 0.0239289819185 22.011401040888
8.753200000000001 0.0239226290851 -3.061488123944 0.9997095817143 -80.53159868266 0.9997095817143 -80.53159868266 0.0239240729042 22.013180461299
8.753300000000001 0.0239176975020 -3.065692409928 0.9997096955535 -80.53281605414 0.9997096955535 -80.53281605414 0.0239191434571 22.014971407884
8.753400000000001 0.0239127453590 -3.069910585495 0.9997098098351 -80.53403463859 0.9997098098351 -80.53403463859 0.0239141934640 22.016773956666
8.753500000000001 0.0239077725397 -3.074142740426 0.9997099245622 -80.53525444293 0.9997099245622 -80.53525444293 0.0239092228078 22.018588180688
8.753600000000000 0.0239027789112 -3.078388973090 0.9997100397379 -80.53647547500 0.9997100397379 -80.53647547500 0.0239042313559 22.020414162409
8.753700000000000 0.0238977643404 -3.082649379976 0.9997101553641 -80.53769774270 0.9997101553641 -80.53769774270 0.0238992189754 22.022251986944
8.753800000000000 0.0238927287103 -3.086924049667 0.9997102714430 -80.53892125294 0.9997102714430 -80.53892125294 0.0238941855495 22.024101729995
8.753900000000000 0.0238876718824 -3.091213086283 0.9997103879785 -80.54014601393 0.9997103879785 -80.54014601393 0.0238891309394 22.025963476092
8.754000000000001 0.0238825937338 -3.095516578746 0.9997105049714 -80.54137203294 0.9997105049714 -80.54137203294 0.0238840550229 22.027837307700
8.754100000000001 0.0238774941286 -3.099834630898 0.9997106224258 -80.54259931802 0.9997106224258 -80.54259931802 0.0238789576638 22.029723307739
8.754200000000001 0.0238723729356 -3.104167338595 0.9997107403433 -80.54382787694 0.9997107403433 -80.54382787694 0.0238738387312 22.031621562078
8.754300000000001 0.0238672299948 -3.108514818515 0.9997108587275 -80.54505771915 0.9997108587275 -80.54505771915 0.0238686980654 22.033532168359
8.754400000000000 0.0238620652223 -3.112877140436 0.9997109775800 -80.54628884964 0.9997109775800 -80.54628884964 0.0238635355823 22.035455186637
8.754500000000000 0.0238568784388 -3.117254433621 0.9997110969048 -80.54752127903 0.9997110969048 -80.54752127903 0.0238583511026 22.037390724934
8.754600000000000 0.0238516695245 -3.121646787754 0.9997112167034 -80.54875501439 0.9997112167034 -80.54875501439 0.0238531445071 22.039338863977
8.754700000000000 0.0238464383497 -3.126054302430 0.9997113369788 -80.54999006343 0.9997113369788 -80.54999006343 0.0238479156659 22.041299686837
8.754800000000001 0.0238411847539 -3.130477095638 0.9997114577345 -80.55122643563 0.9997114577345 -80.55122643563 0.0238426644187 22.043273293003
8.754900000000001 0.0238359086128 -3.134915262099 0.9997115789725 -80.55246413836 0.9997115789725 -80.55246413836 0.0238373906413 22.045259765027
8.755000000000001 0.0238306097763 -3.139368912825 0.9997117006956 -80.55370318051 0.9997117006956 -80.55370318051 0.0238320941839 22.047259198629
8.755100000000001 0.0238252881107 -3.143838149988 0.9997118229066 -80.55494356999 0.9997118229066 -80.55494356999 0.0238267749128 22.049271680464
8.755200000000000 0.0238199434590 -3.148323089853 0.9997119456086 -80.55618531609 0.9997119456086 -80.55618531609 0.0238214326713 22.051297309967
8.755300000000000 0.0238145756817 -3.152823840614 0.9997120688052 -80.55742842710 0.9997120688052 -80.55742842710 0.0238160673195 22.053336175504
8.755400000000000 0.0238091846269 -3.157340512841 0.9997121924981 -80.55867291200 0.9997121924981 -80.55867291200 0.0238106787062 22.055388377158
8.755500000000001 0.0238037701604 -3.161873210476 0.9997123166904 -80.55991877873 0.9997123166904 -80.55991877873 0.0238052666972 22.057454002553
8.755600000000001 0.0237983321217 -3.166422053568 0.9997124413854 -80.56116603681 0.9997124413854 -80.56116603681 0.0237998311320 22.059533153464
8.755700000000001 0.0237928703621 -3.170987152444 0.9997125665850 -80.56241469504 0.9997125665850 -80.56241469504 0.0237943718625 22.061625928106
8.755800000000001 0.0237873847291 -3.175568626592 0.9997126922941 -80.56366476245 0.9997126922941 -80.56366476245 0.0237888887357 22.063732421169
8.755900000000000 0.0237818750685 -3.180166589848 0.9997128185145 -80.56491624818 0.9997128185145 -80.56491624818 0.0237833815977 22.065852735068
8.756000000000000 0.0237763412326 -3.184781154631 0.9997129452489 -80.56616916098 0.9997129452489 -80.56616916098 0.0237778503013 22.067986966534
8.756100000000000 0.0237707830637 -3.189412441421 0.9997130725010 -80.56742351019 0.9997130725010 -80.56742351019 0.0237722946886 22.070135216673
8.756200000000000 0.0237652003961 -3.194060573383 0.9997132002735 -80.56867930561 0.9997132002735 -80.56867930561 0.0237667145944 22.072297593205
8.756300000000001 0.0237595930777 -3.198725667846 0.9997133285696 -80.56993655627 0.9997133285696 -80.56993655627 0.0237611098665 22.074474195006
8.756400000000001 0.0237539609554 -3.203407841603 0.9997134573921 -80.57119527124 0.9997134573921 -80.57119527124 0.0237554803521 22.076665123312
8.756500000000001 0.0237483038490 -3.208107230365 0.9997135867452 -80.57245546119 0.9997135867452 -80.57245546119 0.0237498258707 22.078870491783
8.756600000000001 0.0237426216199 -3.212823940647 0.9997137166304 -80.57371713433 0.9997137166304 -80.57371713433 0.0237441462846 22.081090396270
8.756700000000000 0.0237369140871 -3.217558111422 0.9997138470528 -80.57498030139 0.9997138470528 -80.57498030139 0.0237384414122 22.083324949624
8.756800000000000 0.0237311810871 -3.222309863949 0.9997139780140 -80.57624497204 0.9997139780140 -80.57624497204 0.0237327110909 22.085574262340
8.756900000000000 0.0237254224614 -3.227079322790 0.9997141095179 -80.57751115570 0.9997141095179 -80.57751115570 0.0237269551618 22.087838437428
8.757000000000000 0.0237196380334 -3.231866621533 0.9997142415680 -80.57877886281 0.9997142415680 -80.57877886281 0.0237211734486 22.090117589574
8.757100000000001 0.0237138276329 -3.236671888551 0.9997143741669 -80.58004810347 0.9997143741669 -80.58004810347 0.0237153657815 22.092411832050
8.757200000000001 0.0237079910945 -3.241495253801 0.9997145073186 -80.58131888747 0.9997145073186 -80.58131888747 0.0237095319950 22.094721272164
8.757300000000001 0.0237021282466 -3.246336846673 0.9997146410257 -80.58259122499 0.9997146410257 -80.58259122499 0.0237036719179 22.097046025026
8.757400000000001 0.0236962389109 -3.251196805719 0.9997147752925 -80.58386512659 0.9997147752925 -80.58386512659 0.0236977853717 22.099386205335
8.757500000000000 0.0236903229146 -3.256075263186 0.9997149101220 -80.58514060251 0.9997149101220 -80.58514060251 0.0236918721840 22.101741928266
8.757600000000000 0.0236843800687 -3.260972360554 0.9997150455170 -80.58641766395 0.9997150455170 -80.58641766395 0.0236859321663 22.104113318863
8.757700000000000 0.0236784102072 -3.265888229149 0.9997151814813 -80.58769632075 0.9997151814813 -80.58769632075 0.0236799651525 22.106500487018
8.757800000000001 0.0236724131477 -3.270823009113 0.9997153180185 -80.58897658372 0.9997153180186 -80.58897658372 0.0236739709604 22.108903553353
8.757900000000001 0.0236663886986 -3.275776849067 0.9997154551333 -80.59025846424 0.9997154551333 -80.59025846424 0.0236679493980 22.111322641335
8.758000000000001 0.0236603366849 -3.280749881933 0.9997155928275 -80.59154197264 0.9997155928275 -80.59154197264 0.0236619002914 22.113757871239
8.758100000000001 0.0236542569191 -3.285742251894 0.9997157311046 -80.59282712006 0.9997157311046 -80.59282712006 0.0236558234532 22.116209367568
8.758200000000000 0.0236481492096 -3.290754108986 0.9997158699694 -80.59411391785 0.9997158699694 -80.59411391785 0.0236497186914 22.118677254911
8.758300000000000 0.0236420133819 -3.295785588733 0.9997160094246 -80.59540237636 0.9997160094246 -80.59540237636 0.0236435858321 22.121161652796
8.758400000000000 0.0236358492294 -3.300836851093 0.9997161494750 -80.59669250785 0.9997161494750 -80.59669250785 0.0236374246685 22.123662694595
8.758500000000000 0.0236296565678 -3.305908036466 0.9997162901226 -80.59798432321 0.9997162901226 -80.59798432321 0.0236312350171 22.126180507590
8.758600000000001 0.0236234351937 -3.310999304014 0.9997164313725 -80.59927783453 0.9997164313725 -80.59927783453 0.0236250166743 22.128715223927
8.758700000000001 0.0236171849255 -3.316110795103 0.9997165732274 -80.60057305256 0.9997165732274 -80.60057305256 0.0236187694590 22.131266968781
8.758800000000001 0.0236109055527 -3.321242673990 0.9997167156922 -80.60186998980 0.9997167156922 -80.60186998980 0.0236124931605 22.133835878987
8.758900000000001 0.0236045968876 -3.326395087327 0.9997168587701 -80.60316865737 0.9997168587701 -80.60316865737 0.0236061875914 22.136422083276
8.759000000000000 0.0235982587142 -3.331568198589 0.9997170024641 -80.60446906805 0.9997170024641 -80.60446906805 0.0235998525365 22.139025726525
8.759100000000000 0.0235918908413 -3.336762162021 0.9997171467792 -80.60577123321 0.9997171467792 -80.60577123321 0.0235934878041 22.141646936319
8.759200000000000 0.0235854930665 -3.341977135810 0.9997172917192 -80.60707516486 0.9997172917192 -80.60707516486 0.0235870931922 22.144285849363
8.759300000000001 0.0235790651699 -3.347213289274 0.9997174372879 -80.60838087602 0.9997174372879 -80.60838087602 0.0235806684811 22.146942612327
8.759400000000001 0.0235726069484 -3.352470782685 0.9997175834894 -80.60968837874 0.9997175834894 -80.60968837874 0.0235742134679 22.149617362678
8.759500000000001 0.0235661182006 -3.357749774472 0.9997177303272 -80.61099768496 0.9997177303272 -80.61099768496 0.0235677279516 22.152310238465
8.759600000000001 0.0235595986977 -3.363050441132 0.9997178778056 -80.61230880825 0.9997178778056 -80.61230880825 0.0235612117037 22.155021392384
8.759700000000000 0.0235530482417 -3.368372940038 0.9997180259279 -80.61362176035 0.9997180259279 -80.61362176035 0.0235546645265 22.157750961511
8.759800000000000 0.0235464666025 -3.373717453857 0.9997181747001 -80.61493655494 0.9997181747001 -80.61493655494 0.0235480861893 22.160499096437
8.759900000000000 0.0235398535730 -3.379084144158 0.9997183241249 -80.61625320427 0.9997183241249 -80.61625320427 0.0235414764860 22.163265942128
8.760000000000000 0.0235332089230 -3.384473190480 0.9997184742064 -80.61757172200 0.9997184742064 -80.61757172200 0.0235348351866 22.166051653974
8.760100000000001 0.0235265324291 -3.389884769029 0.9997186249491 -80.61889212138 0.9997186249491 -80.61889212138 0.0235281620679 22.168856383723
8.760200000000001 0.0235198238688 -3.395319058371 0.9997187763581 -80.62021441563 0.9997187763581 -80.62021441563 0.0235214569072 22.171680281028
8.760300000000001 0.0235130830244 -3.400776228618 0.9997189284361 -80.62153861764 0.9997189284361 -80.62153861764 0.0235147194876 22.174523498866
8.760400000000001 0.0235063096510 -3.406256471072 0.9997190811878 -80.62286474195 0.9997190811878 -80.62286474195 0.0235079495646 22.177386202029
8.760500000000000 0.0234995035277 -3.411759966199 0.9997192346189 -80.62419280167 0.9997192346189 -80.62419280167 0.0235011469166 22.180268539889
8.760600000000000 0.0234926644212 -3.417286893921 0.9997193887318 -80.62552281063 0.9997193887318 -80.62552281063 0.0234943113117 22.183170676592
8.760700000000000 0.0234857920863 -3.422837450567 0.9997195435323 -80.62685478339 0.9997195435323 -80.62685478339 0.0234874425041 22.186092776227
8.760800000000000 0.0234788862883 -3.428411822195 0.9997196990245 -80.62818873387 0.9997196990245 -80.62818873387 0.0234805402598 22.189035001151
8.760900000000001 0.0234719467946 -3.434010196070 0.9997198552132 -80.62952467588 0.9997198552132 -80.62952467588 0.0234736043462 22.191997511691
8.761000000000001 0.0234649733635 -3.439632762975 0.9997200121020 -80.63086262376 0.9997200121020 -80.63086262376 0.0234666345221 22.194980476267
8.761100000000001 0.0234579657395 -3.445279726622 0.9997201696966 -80.63220259267 0.9997201696966 -80.63220259267 0.0234596305322 22.197984067525
8.761200000000001 0.0234509236747 -3.450951281895 0.9997203280003 -80.63354459731 0.9997203280003 -80.63354459731 0.0234525921291 22.201008459350
8.761300000000000 0.0234438469406 -3.456647618348 0.9997204870188 -80.63488865126 0.9997204870188 -80.63488865126 0.0234455190840 22.204053810041
8.761400000000000 0.0234367352545 -3.462368954884 0.9997206467565 -80.63623477129 0.9997206467565 -80.63623477130 0.0234384111150 22.207120312295
8.761500000000000 0.0234295883859 -3.468115483649 0.9997208072192 -80.63758297110 0.9997208072192 -80.63758297110 0.0234312679912 22.210208126690
8.761600000000001 0.0234224060511 -3.473887422053 0.9997209684098 -80.63893326750 0.9997209684098 -80.63893326750 0.0234240894302 22.213317450935
8.761700000000001 0.0234151880247 -3.479684958291 0.9997211303331 -80.64028567387 0.9997211303331 -80.64028567387 0.0234168752066 22.216448445976
8.761800000000001 0.0234079340218 -3.485508319099 0.9997212929951 -80.64164020714 0.9997212929951 -80.64164020714 0.0234096250356 22.219601305074
8.761900000000001 0.0234006437926 -3.491357708978 0.9997214564007 -80.64299688214 0.9997214564007 -80.64299688214 0.0234023386674 22.222776203877
8.762000000000000 0.0233933170632 -3.497233347669 0.9997216205552 -80.64435571514 0.9997216205552 -80.64435571514 0.0233950158284 22.225973332564
8.762100000000000 0.0233859535593 -3.503135451150 0.9997217854617 -80.64571672239 0.9997217854617 -80.64571672239 0.0233876562454 22.229192886136
8.762200000000000 0.0233785529989 -3.509064250628 0.9997219511276 -80.64707992066 0.9997219511276 -80.64707992066 0.0233802596359 22.232435055979
8.762300000000000 0.0233711151220 -3.515019955055 0.9997221175561 -80.64844532537 0.9997221175561 -80.64844532537 0.0233728257407 22.235700030615
8.762400000000001 0.0233636396533 -3.521002789022 0.9997222847527 -80.64981295288 0.9997222847527 -80.64981295288 0.0233653542849 22.238988002527
8.762500000000001 0.0233561263072 -3.527012985026 0.9997224527234 -80.65118282015 0.9997224527234 -80.65118282015 0.0233578449827 22.242299170278
8.762600000000001 0.0233485747907 -3.533050777160 0.9997226214728 -80.65255494457 0.9997226214728 -80.65255494457 0.0233502975418 22.245633740483
8.762700000000001 0.0233409848296 -3.539116391961 0.9997227910066 -80.65392934244 0.9997227910066 -80.65392934244 0.0233427116881 22.248991907182
8.762800000000000 0.0233333561272 -3.545210067906 0.9997229613296 -80.65530603136 0.9997229613296 -80.65530603136 0.0233350871255 22.252373880181
8.762900000000000 0.0233256884008 -3.551332035895 0.9997231324465 -80.65668502813 0.9997231324465 -80.65668502813 0.0233274235718 22.255779862162
8.763000000000000 0.0233179813506 -3.557482542847 0.9997233043642 -80.65806635056 0.9997233043642 -80.65806635056 0.0233197207270 22.259210061760
8.763100000000000 0.0233102346733 -3.563661834903 0.9997234770878 -80.65945001666 0.9997234770878 -80.65945001666 0.0233119782884 22.262664693839
8.763200000000001 0.0233024480662 -3.569870156724 0.9997236506220 -80.66083604441 0.9997236506220 -80.66083604441 0.0233041959538 22.266143975841
8.763300000000001 0.0232946212382 -3.576107751081 0.9997238249728 -80.66222445110 0.9997238249728 -80.66222445110 0.0232963734323 22.269648115139
8.763400000000001 0.0232867538755 -3.582374872416 0.9997240001453 -80.66361525537 0.9997240001453 -80.66361525537 0.0232885104109 22.273177335793
8.763500000000001 0.0232788456638 -3.588671779991 0.9997241761461 -80.66500847591 0.9997241761461 -80.66500847591 0.0232806065750 22.276731859960
8.763600000000000 0.0232708962857 -3.594998732698 0.9997243529803 -80.66640413156 0.9997243529803 -80.66640413156 0.0232726616080 22.280311914984
8.763700000000000 0.0232629054348 -3.601355984010 0.9997245306533 -80.66780224052 0.9997245306533 -80.66780224052 0.0232646752040 22.283917722744
8.763800000000000 0.0232548727936 -3.607743799797 0.9997247091724 -80.66920282168 0.9997247091724 -80.66920282168 0.0232566470451 22.287549508109
8.763900000000001 0.0232467980212 -3.614162455305 0.9997248885426 -80.67060589528 0.9997248885426 -80.67060589528 0.0232485767914 22.291207515418
8.764000000000001 0.0232386808123 -3.620612205210 0.9997250687688 -80.67201147946 0.9997250687688 -80.67201147946 0.0232404641381 22.294891969672
8.764100000000001 0.0232305208267 -3.627093330186 0.9997252498575 -80.67341959444 0.9997252498575 -80.67341959444 0.0232323087454 22.298603113190
8.764200000000001 0.0232223177212 -3.633606113710 0.9997254318155 -80.67483026061 0.9997254318155 -80.67483026061 0.0232241102704 22.302341191117
8.764300000000000 0.0232140711698 -3.640150827468 0.9997256146481 -80.67624349735 0.9997256146481 -80.67624349735 0.0232158683875 22.306106442136
8.764400000000000 0.0232057808335 -3.646727753538 0.9997257983615 -80.67765932482 0.9997257983615 -80.67765932482 0.0232075827581 22.309899111818
8.764500000000000 0.0231974463600 -3.653337184609 0.9997259829627 -80.67907776395 0.9997259829627 -80.67907776395 0.0231992530302 22.313719453215
8.764600000000000 0.0231890674081 -3.659979406333 0.9997261684576 -80.68049883502 0.9997261684576 -80.68049883502 0.0231908788630 22.317567715156
8.764700000000001 0.0231806436358 -3.666654703329 0.9997263548516 -80.68192255837 0.9997263548516 -80.68192255837 0.0231824599153 22.321444150655
8.764800000000001 0.0231721746681 -3.673363385614 0.9997265421515 -80.68334895627 0.9997265421515 -80.68334895627 0.0231739958125 22.325349028798
8.764900000000001 0.0231636601540 -3.680105749850 0.9997267303642 -80.68477804961 0.9997267303642 -80.68477804961 0.0231654862037 22.329282606140
8.765000000000001 0.0231550997283 -3.686882100049 0.9997269194957 -80.68620986010 0.9997269194957 -80.68620986010 0.0231569307246 22.333245150510
8.765100000000000 0.0231464930444 -3.693692731257 0.9997271095524 -80.68764440834 0.9997271095524 -80.68764440834 0.0231483290287 22.337236919164
8.765200000000000 0.0231378397099 -3.700537970075 0.9997273005416 -80.68908171768 0.9997273005416 -80.68908171768 0.0231396807241 22.341258194934
8.765300000000000 0.0231291393512 -3.707418129550 0.9997274924696 -80.69052181031 0.9997274924696 -80.69052181031 0.0231309854379 22.345309253828
8.765400000000001 0.0231203915838 -3.714333529094 0.9997276853418 -80.69196470909 0.9997276853418 -80.69196470909 0.0231222427867 22.349390380978
8.765500000000001 0.0231115960616 -3.721284479227 0.9997278791687 -80.69341043468 0.9997278791687 -80.69341043468 0.0231134524226 22.353501828478
8.765600000000001 0.0231027523536 -3.728271321310 0.9997280739526 -80.69485901260 0.9997280739526 -80.69485901260 0.0231046139179 22.357643918788
8.765700000000001 0.0230938600940 -3.735294377394 0.9997282697029 -80.69631046468 0.9997282697029 -80.69631046468 0.0230957269059 22.361816920718
8.765800000000000 0.0230849188786 -3.742353990359 0.9997284664276 -80.69776481496 0.9997284664276 -80.69776481496 0.0230867909825 22.366021130542
8.765900000000000 0.0230759283145 -3.749450488277 0.9997286641308 -80.69922208679 0.9997286641308 -80.69922208679 0.0230778057564 22.370256847206
8.766000000000000 0.0230668879952 -3.756584220308 0.9997288628216 -80.70068230435 0.9997288628216 -80.70068230435 0.0230687708212 22.374524368748
8.766100000000000 0.0230577975068 -3.763755537393 0.9997290625071 -80.70214549228 0.9997290625071 -80.70214549228 0.0230596857632 22.378824003095
8.766200000000001 0.0230486564519 -3.770964778244 0.9997292631929 -80.70361167421 0.9997292631929 -80.70361167421 0.0230505501863 22.383156052645
8.766300000000001 0.0230394644003 -3.778212310538 0.9997294648879 -80.70508087575 0.9997294648879 -80.70508087575 0.0230413636604 22.387520834003
8.766400000000001 0.0230302209190 -3.785498504486 0.9997296676005 -80.70655312266 0.9997296676005 -80.70655312266 0.0230321257524 22.391918667687
8.766500000000001 0.0230209256179 -3.792823696627 0.9997298713355 -80.70802843815 0.9997298713355 -80.70802843815 0.0230228360739 22.396349858034
8.766600000000000 0.0230115780368 -3.800188277919 0.9997300761019 -80.70950684961 0.9997300761019 -80.70950684961 0.0230134941648 22.400814743664
8.766700000000000 0.0230021777482 -3.807592618588 0.9997302819076 -80.71098838248 0.9997302819076 -80.71098838248 0.0230040995981 22.405313647181
8.766800000000000 0.0229927243043 -3.815037102729 0.9997304887604 -80.71247306342 0.9997304887604 -80.71247306342 0.0229946519264 22.409846905254
8.766900000000000 0.0229832172877 -3.822522092302 0.9997306966662 -80.71396091728 0.9997306966662 -80.71396091728 0.0229851507335 22.414414842562
8.767000000000001 0.0229736561991 -3.830048008429 0.9997309056339 -80.71545197373 0.9997309056339 -80.71545197373 0.0229755955208 22.419017827367
8.767100000000001 0.0229640406108 -3.837615231353 0.9997311156725 -80.71694625828 0.9997311156725 -80.71694625828 0.0229659858606 22.423656186010
8.767200000000001 0.0229543700798 -3.845224146876 0.9997313267890 -80.71844379731 0.9997313267890 -80.71844379731 0.0229563213103 22.428330260777
8.767300000000001 0.0229446441158 -3.852875172303 0.9997315389910 -80.71994461999 0.9997315389910 -80.71994461999 0.0229466013812 22.433040422729
8.767400000000000 0.0229348622488 -3.860568720688 0.9997317522881 -80.72144875430 0.9997317522881 -80.72144875430 0.0229368256031 22.437787027166
8.767500000000000 0.0229250240123 -3.868305197136 0.9997319666873 -80.72295622804 0.9997319666873 -80.72295622804 0.0229269935105 22.442570435925
8.767600000000000 0.0229151289120 -3.876085029103 0.9997321821968 -80.72446707061 0.9997321821968 -80.72446707061 0.0229171046102 22.447391026005
8.767700000000001 0.0229051764770 -3.883908632580 0.9997323988251 -80.72598131008 0.9997323988251 -80.72598131008 0.0229071584315 22.452249161692
8.767800000000001 0.0228951661871 -3.891776456428 0.9997326165810 -80.72749897741 0.9997326165810 -80.72749897741 0.0228971544551 22.457145237883
8.767900000000001 0.0228850975647 -3.899688925114 0.9997328354732 -80.72902010107 0.9997328354732 -80.72902010107 0.0228870922038 22.462079626057
8.768000000000001 0.0228749701018 -3.907646484356 0.9997330555107 -80.73054471132 0.9997330555107 -80.73054471132 0.0228769711703 22.467052717385
8.768100000000000 0.0228647832886 -3.915649580758 0.9997332767016 -80.73207283852 0.9997332767016 -80.73207283852 0.0228667908457 22.472064908432
8.768200000000000 0.0228545365988 -3.923698673039 0.9997334990538 -80.73360451399 0.9997334990538 -80.73360451399 0.0228565507050 22.477116607372
8.768300000000000 0.0228442295300 -3.931794213463 0.9997337225776 -80.73513976772 0.9997337225776 -80.73513976772 0.0228462502456 22.482208205073
8.768400000000000 0.0228338615386 -3.939936675420 0.9997339472810 -80.73667863206 0.9997339472810 -80.73667863206 0.0228358889254 22.487340124932
8.768500000000001 0.0228234320912 -3.948126532570 0.9997341731734 -80.73822113879 0.9997341731734 -80.73822113879 0.0228254662116 22.492512782207
8.768600000000001 0.0228129406459 -3.956364268694 0.9997344002654 -80.73976732024 0.9997344002654 -80.73976732024 0.0228149815623 22.497726597825
8.768700000000001 0.0228023866819 -3.964650347177 0.9997346285637 -80.74131720742 0.9997346285637 -80.74131720742 0.0228044344585 22.502981990044
8.768800000000001 0.0227917695836 -3.972985304018 0.9997348580796 -80.74287083700 0.9997348580796 -80.74287083700 0.0227938242853 22.508279427041
8.768900000000000 0.0227810888372 -3.981369608363 0.9997350888219 -80.74442823963 0.9997350888219 -80.74442823963 0.0227831505292 22.513619323107
8.769000000000000 0.0227703438803 -3.989803762656 0.9997353207997 -80.74598944884 0.9997353207997 -80.74598944884 0.0227724126290 22.519002123505
8.769100000000000 0.0227595341334 -3.998288283265 0.9997355540225 -80.74755449915 0.9997355540225 -80.74755449915 0.0227616100062 22.524428285595
8.769200000000000 0.0227486590042 -4.006823702017 0.9997357885016 -80.74912342590 0.9997357885016 -80.74912342590 0.0227507420688 22.529898272721
8.769300000000001 0.0227377178855 -4.015410555896 0.9997360242457 -80.75069626525 0.9997360242457 -80.75069626525 0.0227398082111 22.535412565986
8.769400000000001 0.0227267102286 -4.024049350183 0.9997362612642 -80.75227304995 0.9997362612642 -80.75227304995 0.0227288078850 22.540971611269
8.769500000000001 0.0227156354165 -4.032740637837 0.9997364995677 -80.75385381679 0.9997364995677 -80.75385381679 0.0227177404744 22.546575896663
8.769600000000001 0.0227044928142 -4.041484986988 0.9997367391671 -80.75543860363 0.9997367391671 -80.75543860363 0.0227066053451 22.552225923105
8.769700000000000 0.0226932818439 -4.050282927328 0.9997369800710 -80.75702744493 0.9997369800710 -80.75702744493 0.0226954019208 22.557922163737
8.769800000000000 0.0226820018630 -4.059135041123 0.9997372222917 -80.75862037903 0.9997372222917 -80.75862037903 0.0226841295588 22.563665126504
8.769900000000000 0.0226706522254 -4.068041905893 0.9997374658377 -80.76021744443 0.9997374658377 -80.76021744443 0.0226727876154 22.569455332722
8.770000000000001 0.0226592323210 -4.077004087254 0.9997377107204 -80.76181867757 0.9997377107204 -80.76181867757 0.0226613754805 22.575293278194
8.770100000000001 0.0226477414765 -4.086022196132 0.9997379569522 -80.76342411861 0.9997379569522 -80.76342411861 0.0226498924815 22.581179497614