! Sonnet Data File
! From: emgraph Version : 16.52
! From Emgraph Data: 171117_Xmon_lossySub
! Data File Written: 11/17/2017 13:54:06
!< HDATE 11/17/2017 11:10:36
!< MDATE 11/17/2017 11:10:36
!< PARAMS
!< Lj = 11.0
!< Gap = 6.0
!< Pwid = 2000.0
!< Width = 10.0
!< END PARAMS
# GHZ S MA R 50.90000
8.750000000000000 0.0191779091622 15.052072702529 0.9997790517732 -80.15894157781 0.9997790517787 -80.15894157778 0.0191729205230 4.7938387381365
!< P1 F=8.75 Eeff=(6.44679774 -2.9728e-4) Z0=(51.7991716 0.00119473) R=0.0 C=0.0 
!< P2 F=8.75 Eeff=(6.44679774 -2.9728e-4) Z0=(51.7991716 0.00119473) R=0.0 C=0.0 
8.750050000000000 0.0191766717968 15.051932912548 0.9997790645014 -80.15947187130 0.9997790645014 -80.15947187130 0.0191716823749 4.7929859708647
8.750100000000000 0.0191754331701 15.051792723934 0.9997790786203 -80.16000227355 0.9997790786203 -80.16000227355 0.0191704418361 4.7921324710354
8.750150000000001 0.0191741921169 15.051653137689 0.9997790927572 -80.16053281545 0.9997790927572 -80.16053281545 0.0191691988656 4.7912782800877
8.750200000000001 0.0191729486312 15.051514156047 0.9997791069118 -80.16106349734 0.9997791069118 -80.16106349734 0.0191679534573 4.7904233968122
8.750250000000001 0.0191717027049 15.051375780640 0.9997791210845 -80.16159431970 0.9997791210845 -80.16159431970 0.0191667056029 4.7895678182032
8.750300000000001 0.0191704543325 15.051238013131 0.9997791352752 -80.16212528284 0.9997791352752 -80.16212528284 0.0191654552972 4.7887115427595
8.750350000000001 0.0191692035051 15.051100856195 0.9997791494838 -80.16265638727 0.9997791494838 -80.16265638727 0.0191642025310 4.7878545681855
8.750400000000001 0.0191679502169 15.050964311629 0.9997791637104 -80.16318763333 0.9997791637104 -80.16318763333 0.0191629472986 4.7869968928473
8.750450000000001 0.0191666944589 15.050828381258 0.9997791779551 -80.16371902153 0.9997791779551 -80.16371902153 0.0191616895911 4.7861385136146
8.750500000000001 0.0191654362263 15.050693067230 0.9997791922177 -80.16425055216 0.9997791922177 -80.16425055216 0.0191604294034 4.7852794296488
8.750550000000000 0.0191641755119 15.050558371215 0.9997792064985 -80.16478222563 0.9997792064985 -80.16478222563 0.0191591667284 4.7844196385783
8.750600000000000 0.0191629123078 15.050424295714 0.9997792207972 -80.16531404239 0.9997792207972 -80.16531404239 0.0191579015583 4.7835591384388
8.750650000000000 0.0191616466053 15.050290842769 0.9997792351141 -80.16584600295 0.9997792351141 -80.16584600295 0.0191566338842 4.7826979263425
8.750700000000000 0.0191603784006 15.050158013791 0.9997792494491 -80.16637810751 0.9997792494491 -80.16637810751 0.0191553637024 4.7818360013444
8.750750000000000 0.0191591076830 15.050025811354 0.9997792638022 -80.16691035671 0.9997792638022 -80.16691035671 0.0191540910022 4.7809733601343
8.750800000000000 0.0191578344477 15.049894237446 0.9997792781735 -80.16744275082 0.9997792781735 -80.16744275082 0.0191528157786 4.7801100017371
8.750850000000000 0.0191565586863 15.049763293997 0.9997792925630 -80.16797529031 0.9997792925630 -80.16797529031 0.0191515380234 4.7792459234002
8.750900000000000 0.0191552803902 15.049632983247 0.9997793069707 -80.16850797569 0.9997793069707 -80.16850797569 0.0191502577279 4.7783811225390
8.750950000000001 0.0191539995547 15.049503307039 0.9997793213966 -80.16904080723 0.9997793213966 -80.16904080723 0.0191489748873 4.7775155980498
8.751000000000001 0.0191527161713 15.049374267895 0.9997793358406 -80.16957378541 0.9997793358406 -80.16957378541 0.0191476894931 4.7766493476720
8.751050000000001 0.0191514302318 15.049245867331 0.9997793503031 -80.17010691072 0.9997793503031 -80.17010691072 0.0191464015370 4.7757823683047
8.751100000000001 0.0191501417293 15.049118107972 0.9997793647837 -80.17064018354 0.9997793647837 -80.17064018354 0.0191451110123 4.7749146585781
8.751150000000001 0.0191488506573 15.048990991430 0.9997793792827 -80.17117360426 0.9997793792827 -80.17117360426 0.0191438179124 4.7740462162959
8.751200000000001 0.0191475570078 15.048864520278 0.9997793937999 -80.17170717332 0.9997793937999 -80.17170717332 0.0191425222291 4.7731770394843
8.751250000000001 0.0191462607714 15.048738696587 0.9997794083356 -80.17224089128 0.9997794083356 -80.17224089128 0.0191412239532 4.7723071249692
8.751300000000001 0.0191449619421 15.048613522472 0.9997794228895 -80.17277475848 0.9997794228895 -80.17277475848 0.0191399230787 4.7714364712997
8.751350000000000 0.0191436605132 15.048488999871 0.9997794374619 -80.17330877530 0.9997794374619 -80.17330877530 0.0191386195986 4.7705650764584
8.751400000000000 0.0191423564750 15.048365131222 0.9997794520526 -80.17384294231 0.9997794520526 -80.17384294231 0.0191373135034 4.7696929375372
8.751450000000000 0.0191410498218 15.048241918528 0.9997794666618 -80.17437725984 0.9997794666618 -80.17437725984 0.0191360047873 4.7688200530290
8.751500000000000 0.0191397405454 15.048119364096 0.9997794812893 -80.17491172835 0.9997794812893 -80.17491172835 0.0191346934421 4.7679464206480
8.751550000000000 0.0191384286370 15.047997469898 0.9997794959354 -80.17544634835 0.9997794959354 -80.17544634835 0.0191333794590 4.7670720374073
8.751600000000000 0.0191371140890 15.047876238810 0.9997795105998 -80.17598112028 0.9997795105998 -80.17598112028 0.0191320628303 4.7661969017204
8.751650000000000 0.0191357968955 15.047755672128 0.9997795252828 -80.17651604449 0.9997795252828 -80.17651604449 0.0191307435502 4.7653210113764
8.751700000000001 0.0191344770470 15.047635772509 0.9997795399843 -80.17705112151 0.9997795399843 -80.17705112151 0.0191294216090 4.7644443637130
8.751750000000001 0.0191331545358 15.047516542337 0.9997795547043 -80.17758635179 0.9997795547043 -80.17758635179 0.0191280969992 4.7635669566755
8.751800000000001 0.0191318293550 15.047397983284 0.9997795694429 -80.17812173574 0.9997795694429 -80.17812173574 0.0191267697136 4.7626887878454
8.751850000000001 0.0191305014954 15.047280098563 0.9997795841999 -80.17865727388 0.9997795841999 -80.17865727388 0.0191254397433 4.7618098553165
8.751900000000001 0.0191291709499 15.047162889421 0.9997795989757 -80.17919296661 0.9997795989757 -80.17919296661 0.0191241070809 4.7609301561520
8.751950000000001 0.0191278377109 15.047046358714 0.9997796137700 -80.17972881438 0.9997796137700 -80.17972881438 0.0191227717189 4.7600496887253
8.752000000000001 0.0191265017696 15.046930508681 0.9997796285829 -80.18026481769 0.9997796285829 -80.18026481769 0.0191214336485 4.7591684503967
8.752050000000001 0.0191251631174 15.046815341751 0.9997796434145 -80.18080097705 0.9997796434145 -80.18080097705 0.0191200928609 4.7582864385578
8.752100000000000 0.0191238217480 15.046700859751 0.9997796582647 -80.18133729281 0.9997796582647 -80.18133729281 0.0191187493500 4.7574036513617
8.752150000000000 0.0191224776514 15.046587065588 0.9997796731336 -80.18187376554 0.9997796731336 -80.18187376554 0.0191174031056 4.7565200860485
8.752200000000000 0.0191211308220 15.046473960500 0.9997796880213 -80.18241039558 0.9997796880213 -80.18241039558 0.0191160541223 4.7556357404738
8.752250000000000 0.0191197812487 15.046361548328 0.9997797029276 -80.18294718356 0.9997797029276 -80.18294718356 0.0191147023888 4.7547506122468
8.752300000000000 0.0191184289255 15.046249830325 0.9997797178527 -80.18348412983 0.9997797178527 -80.18348412983 0.0191133478989 4.7538646989659
8.752350000000000 0.0191170738436 15.046138809479 0.9997797327964 -80.18402123489 0.9997797327964 -80.18402123489 0.0191119906442 4.7529779986777
8.752400000000000 0.0191157159945 15.046028487604 0.9997797477590 -80.18455849923 0.9997797477590 -80.18455849923 0.0191106306159 4.7520905082493
8.752450000000001 0.0191143553693 15.045918867587 0.9997797627403 -80.18509592337 0.9997797627403 -80.18509592337 0.0191092678051 4.7512022254784
8.752500000000001 0.0191129919617 15.045809951290 0.9997797777404 -80.18563350767 0.9997797777404 -80.18563350767 0.0191079022055 4.7503131484431
8.752550000000001 0.0191116257608 15.045701741558 0.9997797927595 -80.18617125277 0.9997797927595 -80.18617125277 0.0191065338062 4.7494232738444
8.752600000000001 0.0191102567599 15.045594240673 0.9997798077973 -80.18670915903 0.9997798077973 -80.18670915903 0.0191051626004 4.7485325999988
8.752650000000001 0.0191088849505 15.045487450948 0.9997798228539 -80.18724722696 0.9997798228539 -80.18724722696 0.0191037885796 4.7476411242777
8.752700000000001 0.0191075103237 15.045381375069 0.9997798379294 -80.18778545707 0.9997798379294 -80.18778545707 0.0191024117349 4.7467488442949
8.752750000000001 0.0191061328711 15.045276015247 0.9997798530238 -80.18832384983 0.9997798530238 -80.18832384983 0.0191010320580 4.7458557573989
8.752800000000001 0.0191047525837 15.045171373827 0.9997798681373 -80.18886240578 0.9997798681373 -80.18886240578 0.0190996495396 4.7449618606909
8.752850000000000 0.0191033694527 15.045067453851 0.9997798832695 -80.18940112541 0.9997798832695 -80.18940112541 0.0190982641711 4.7440671522112
8.752900000000000 0.0191019834727 15.044964256948 0.9997798984207 -80.18994000905 0.9997798984207 -80.18994000905 0.0190968759470 4.7431716301449
8.752950000000000 0.0191005946314 15.044861786269 0.9997799135909 -80.19047905739 0.9997799135909 -80.19047905739 0.0190954848549 4.7422752908412
8.753000000000000 0.0190992029215 15.044760044086 0.9997799287800 -80.19101827086 0.9997799287800 -80.19101827086 0.0190940908875 4.7413781322346
8.753050000000000 0.0190978083341 15.044659032777 0.9997799439882 -80.19155764997 0.9997799439882 -80.19155764997 0.0190926940359 4.7404801515305
8.753100000000000 0.0190964108603 15.044558755136 0.9997799592153 -80.19209719523 0.9997799592153 -80.19209719523 0.0190912942912 4.7395813464374
8.753150000000000 0.0190950104918 15.044459213652 0.9997799744615 -80.19263690712 0.9997799744615 -80.19263690712 0.0190898916451 4.7386817145520
8.753200000000001 0.0190936072200 15.044360410500 0.9997799897267 -80.19317678614 0.9997799897267 -80.19317678614 0.0190884860889 4.7377812530364
8.753250000000001 0.0190922010352 15.044262348896 0.9997800050110 -80.19371683285 0.9997800050110 -80.19371683285 0.0190870776129 4.7368799595407
8.753300000000001 0.0190907919300 15.044165030744 0.9997800203143 -80.19425704767 0.9997800203143 -80.19425704767 0.0190856662095 4.7359778315423
8.753350000000001 0.0190893798940 15.044068458632 0.9997800356369 -80.19479743120 0.9997800356369 -80.19479743120 0.0190842518687 4.7350748657665
8.753400000000001 0.0190879649188 15.043972636077 0.9997800509783 -80.19533798393 0.9997800509783 -80.19533798393 0.0190828345816 4.7341710607600
8.753450000000001 0.0190865469949 15.043877565033 0.9997800663390 -80.19587870640 0.9997800663390 -80.19587870640 0.0190814143390 4.7332664130340
8.753500000000001 0.0190851261148 15.043783247467 0.9997800817189 -80.19641959905 0.9997800817189 -80.19641959905 0.0190799911333 4.7323609200351
8.753550000000001 0.0190837022674 15.043689687277 0.9997800971179 -80.19696066252 0.9997800971179 -80.19696066252 0.0190785649531 4.7314545793396
8.753600000000000 0.0190822754455 15.043596886512 0.9997801125359 -80.19750189722 0.9997801125359 -80.19750189722 0.0190771357916 4.7305473887508
8.753650000000000 0.0190808456391 15.043504847237 0.9997801279734 -80.19804330372 0.9997801279734 -80.19804330372 0.0190757036385 4.7296393445129
8.753700000000000 0.0190794128381 15.043413573080 0.9997801434300 -80.19858488261 0.9997801434300 -80.19858488261 0.0190742684837 4.7287304444772
8.753750000000000 0.0190779770352 15.043323066275 0.9997801589057 -80.19912663431 0.9997801589057 -80.19912663431 0.0190728303200 4.7278206864698
8.753800000000000 0.0190765382211 15.043233329644 0.9997801744006 -80.19966855937 0.9997801744006 -80.19966855937 0.0190713891378 4.7269100678388
8.753850000000000 0.0190750963837 15.043144365564 0.9997801899150 -80.20021065846 0.9997801899150 -80.20021065846 0.0190699449253 4.7259985842819
8.753900000000000 0.0190736515169 15.043056177241 0.9997802054485 -80.20075293194 0.9997802054485 -80.20075293194 0.0190684976761 4.7250862350567
8.753950000000000 0.0190722036109 15.042968766866 0.9997802210013 -80.20129538039 0.9997802210013 -80.20129538039 0.0190670473805 4.7241730167116
8.754000000000001 0.0190707526544 15.042882137667 0.9997802365734 -80.20183800445 0.9997802365734 -80.20183800445 0.0190655940272 4.7232589260773
8.754050000000001 0.0190692986394 15.042796292256 0.9997802521648 -80.20238080458 0.9997802521648 -80.20238080458 0.0190641376081 4.7223439609542
8.754100000000001 0.0190678415570 15.042711233176 0.9997802677755 -80.20292378130 0.9997802677755 -80.20292378130 0.0190626781143 4.7214281186404
8.754150000000001 0.0190663813955 15.042626963690 0.9997802834056 -80.20346693527 0.9997802834056 -80.20346693527 0.0190612155341 4.7205113957675
8.754200000000001 0.0190649181468 15.042543486322 0.9997802990549 -80.20401026697 0.9997802990549 -80.20401026697 0.0190597498592 4.7195937899930
8.754250000000001 0.0190634518019 15.042460803496 0.9997803147237 -80.20455377692 0.9997803147237 -80.20455377692 0.0190582810808 4.7186752984448
8.754300000000001 0.0190619823503 15.042378918358 0.9997803304119 -80.20509746571 0.9997803304119 -80.20509746571 0.0190568091883 4.7177559182076
8.754350000000001 0.0190605097830 15.042297833743 0.9997803461195 -80.20564133388 0.9997803461195 -80.20564133388 0.0190553341726 4.7168356467856
8.754400000000000 0.0190590340886 15.042217552823 0.9997803618465 -80.20618538207 0.9997803618465 -80.20618538207 0.0190538560222 4.7159144808082
8.754450000000000 0.0190575552599 15.042138077906 0.9997803775928 -80.20672961070 0.9997803775928 -80.20672961070 0.0190523747300 4.7149924182125
8.754500000000000 0.0190560732857 15.042059411984 0.9997803933586 -80.20727402042 0.9997803933586 -80.20727402042 0.0190508902849 4.7140694555748
8.754550000000000 0.0190545881562 15.041981557961 0.9997804091439 -80.20781861179 0.9997804091439 -80.20781861179 0.0190494026767 4.7131455899386
8.754600000000000 0.0190530998607 15.041904519128 0.9997804249487 -80.20836338542 0.9997804249487 -80.20836338542 0.0190479118951 4.7122208185609
8.754650000000000 0.0190516083913 15.041828297923 0.9997804407729 -80.20890834179 0.9997804407729 -80.20890834179 0.0190464179317 4.7112951389306
8.754700000000000 0.0190501137371 15.041752897414 0.9997804566166 -80.20945348150 0.9997804566166 -80.20945348150 0.0190449207760 4.7103685479410
8.754750000000001 0.0190486158869 15.041678320626 0.9997804724798 -80.20999880520 0.9997804724798 -80.20999880520 0.0190434204165 4.7094410420643
8.754800000000001 0.0190471148326 15.041604570422 0.9997804883626 -80.21054431338 0.9997804883626 -80.21054431338 0.0190419168451 4.7085126193026
8.754850000000001 0.0190456105634 15.041531649908 0.9997805042647 -80.21109000663 0.9997805042647 -80.21109000663 0.0190404100511 4.7075832764639
8.754900000000001 0.0190441030687 15.041459561857 0.9997805201865 -80.21163588559 0.9997805201865 -80.21163588559 0.0190389000237 4.7066530101726
8.754950000000001 0.0190425923383 15.041388309456 0.9997805361279 -80.21218195083 0.9997805361279 -80.21218195083 0.0190373867528 4.7057218175918
8.755000000000001 0.0190410783630 15.041317895625 0.9997805520888 -80.21272820288 0.9997805520888 -80.21272820288 0.0190358702290 4.7047896961749
8.755050000000001 0.0190395611314 15.041248323531 0.9997805680692 -80.21327464241 0.9997805680692 -80.21327464241 0.0190343504411 4.7038566425021
8.755100000000001 0.0190380406348 15.041179596073 0.9997805840692 -80.21382126992 0.9997805840692 -80.21382126992 0.0190328273801 4.7029226542050
8.755150000000000 0.0190365168604 15.041111716293 0.9997806000889 -80.21436808613 0.9997806000889 -80.21436808613 0.0190313010335 4.7019877270944
8.755200000000000 0.0190349898007 15.041044686818 0.9997806161282 -80.21491509148 0.9997806161282 -80.21491509148 0.0190297713935 4.7010518590467
8.755250000000000 0.0190334594431 15.040978511764 0.9997806321870 -80.21546228671 0.9997806321870 -80.21546228671 0.0190282384475 4.7001150469865
8.755300000000000 0.0190319257780 15.040913193300 0.9997806482656 -80.21600967237 0.9997806482656 -80.21600967237 0.0190267021858 4.6991772873285
8.755350000000000 0.0190303887950 15.040848735168 0.9997806643637 -80.21655724904 0.9997806643637 -80.21655724904 0.0190251625982 4.6982385777744
8.755400000000000 0.0190288484843 15.040785139415 0.9997806804816 -80.21710501730 0.9997806804816 -80.21710501730 0.0190236196747 4.6972989145188
8.755450000000000 0.0190273048325 15.040722411134 0.9997806966190 -80.21765297793 0.9997806966190 -80.21765297793 0.0190220734019 4.6963582949269
8.755500000000001 0.0190257578308 15.040660552054 0.9997807127761 -80.21820113142 0.9997807127761 -80.21820113142 0.0190205237709 4.6954167154440
8.755550000000001 0.0190242074694 15.040599565549 0.9997807289529 -80.21874947834 0.9997807289529 -80.21874947834 0.0190189707720 4.6944741736237
8.755600000000001 0.0190226537364 15.040539454719 0.9997807451495 -80.21929801937 0.9997807451495 -80.21929801937 0.0190174143932 4.6935306656175
8.755650000000001 0.0190210966215 15.040480222933 0.9997807613658 -80.21984675513 0.9997807613658 -80.21984675513 0.0190158546241 4.6925861886462
8.755700000000001 0.0190195361136 15.040421873769 0.9997807776016 -80.22039568623 0.9997807776016 -80.22039568623 0.0190142914536 4.6916407398444
8.755750000000001 0.0190179722017 15.040364410081 0.9997807938573 -80.22094481332 0.9997807938573 -80.22094481332 0.0190127248707 4.6906943155125
8.755800000000001 0.0190164048760 15.040307834755 0.9997808101327 -80.22149413696 0.9997808101327 -80.22149413696 0.0190111548656 4.6897469127200
8.755850000000001 0.0190148341232 15.040252151780 0.9997808264279 -80.22204365792 0.9997808264279 -80.22204365792 0.0190095814248 4.6887985277536
8.755900000000000 0.0190132599348 15.040197364133 0.9997808427427 -80.22259337668 0.9997808427427 -80.22259337669 0.0190080045399 4.6878491583722
8.755950000000000 0.0190116822975 15.040143475242 0.9997808590774 -80.22314329403 0.9997808590774 -80.22314329403 0.0190064241975 4.6868988003409
8.756000000000000 0.0190101012032 15.040090487987 0.9997808754317 -80.22369341040 0.9997808754317 -80.22369341040 0.0190048403895 4.6859474515270
8.756050000000000 0.0190085166375 15.040038406167 0.9997808918059 -80.22424372665 0.9997808918059 -80.22424372665 0.0190032531016 4.6849951075081
8.756100000000000 0.0190069285905 15.039987233088 0.9997809081999 -80.22479424334 0.9997809081999 -80.22479424334 0.0190016623236 4.6840417655343
8.756150000000000 0.0190053370516 15.039936971578 0.9997809246137 -80.22534496108 0.9997809246137 -80.22534496108 0.0190000680450 4.6830874221937
8.756200000000000 0.0190037420089 15.039887625804 0.9997809410473 -80.22589588057 0.9997809410473 -80.22589588057 0.0189984702537 4.6821320745625
8.756250000000001 0.0190021434502 15.039839198688 0.9997809575007 -80.22644700249 0.9997809575007 -80.22644700249 0.0189968689377 4.6811757185309
8.756300000000001 0.0190005413670 15.039791693673 0.9997809739738 -80.22699832734 0.9997809739738 -80.22699832734 0.0189952640884 4.6802183522375
8.756350000000001 0.0189989357445 15.039745114586 0.9997809904668 -80.22754985598 0.9997809904668 -80.22754985598 0.0189936556909 4.6792599709850
8.756400000000001 0.0189973265728 15.039699464571 0.9997810069795 -80.22810158898 0.9997810069795 -80.22810158898 0.0189920437353 4.6783005719250
8.756450000000001 0.0189957138403 15.039654746377 0.9997810235123 -80.22865352700 0.9997810235123 -80.22865352700 0.0189904282099 4.6773401509231
8.756500000000001 0.0189940975357 15.039610964736 0.9997810400648 -80.22920567069 0.9997810400648 -80.22920567069 0.0189888091034 4.6763787060269
8.756550000000001 0.0189924776461 15.039568122671 0.9997810566371 -80.22975802081 0.9997810566371 -80.22975802081 0.0189871864028 4.6754162326779
8.756600000000001 0.0189908541607 15.039526223422 0.9997810732293 -80.23031057796 0.9997810732293 -80.23031057796 0.0189855600975 4.6744527277144
8.756650000000000 0.0189892270678 15.039485270862 0.9997810898414 -80.23086334283 0.9997810898414 -80.23086334283 0.0189839301754 4.6734881879332
8.756700000000000 0.0189875963551 15.039445268504 0.9997811064733 -80.23141631612 0.9997811064733 -80.23141631612 0.0189822966245 4.6725226096779
8.756750000000000 0.0189859620123 15.039406219716 0.9997811231250 -80.23196949844 0.9997811231250 -80.23196949844 0.0189806594342 4.6715559900131
8.756800000000000 0.0189843240249 15.039368128103 0.9997811397967 -80.23252289061 0.9997811397967 -80.23252289061 0.0189790185900 4.6705883241526
8.756850000000000 0.0189826823837 15.039330997134 0.9997811564883 -80.23307649316 0.9997811564883 -80.23307649316 0.0189773740828 4.6696196099069
8.756900000000000 0.0189810370737 15.039294831329 0.9997811731996 -80.23363030696 0.9997811731996 -80.23363030696 0.0189757258975 4.6686498431430
8.756950000000000 0.0189793880862 15.039259633101 0.9997811899309 -80.23418433251 0.9997811899309 -80.23418433251 0.0189740740253 4.6676790207469
8.757000000000000 0.0189777354070 15.039225406895 0.9997812066821 -80.23473857064 0.9997812066821 -80.23473857064 0.0189724184519 4.6667071388894
8.757050000000001 0.0189760790237 15.039192156067 0.9997812234532 -80.23529302205 0.9997812234532 -80.23529302205 0.0189707591650 4.6657341936099
8.757100000000001 0.0189744189240 15.039159884631 0.9997812402443 -80.23584768745 0.9997812402443 -80.23584768745 0.0189690961522 4.6647601816280
8.757150000000001 0.0189727550974 15.039128596141 0.9997812570551 -80.23640256745 0.9997812570551 -80.23640256745 0.0189674294030 4.6637851000428
8.757200000000001 0.0189710875309 15.039098294168 0.9997812738858 -80.23695766280 0.9997812738858 -80.23695766280 0.0189657589043 4.6628089447266
8.757250000000001 0.0189694162118 15.039068981988 0.9997812907366 -80.23751297422 0.9997812907366 -80.23751297422 0.0189640846435 4.6618317114916
8.757300000000001 0.0189677411259 15.039040664856 0.9997813076072 -80.23806850255 0.9997813076072 -80.23806850255 0.0189624066061 4.6608533971836
8.757350000000001 0.0189660622641 15.039013345133 0.9997813244977 -80.23862424830 0.9997813244977 -80.23862424830 0.0189607247830 4.6598739984397
8.757400000000001 0.0189643796115 15.038987027267 0.9997813414081 -80.23918021234 0.9997813414081 -80.23918021234 0.0189590391595 4.6588935111062
8.757450000000000 0.0189626931558 15.038961715244 0.9997813583384 -80.23973639536 0.9997813583384 -80.23973639536 0.0189573497230 4.6579119317348
8.757500000000000 0.0189610028855 15.038937412210 0.9997813752887 -80.24029279804 0.9997813752887 -80.24029279804 0.0189556564621 4.6569292565166
8.757550000000000 0.0189593087871 15.038914122740 0.9997813922588 -80.24084942115 0.9997813922588 -80.24084942115 0.0189539593632 4.6559454820621
8.757600000000000 0.0189576108474 15.038891850647 0.9997814092489 -80.24140626545 0.9997814092489 -80.24140626545 0.0189522584131 4.6549606042921
8.757650000000000 0.0189559090548 15.038870598975 0.9997814262589 -80.24196333162 0.9997814262589 -80.24196333162 0.0189505536000 4.6539746191898
8.757700000000000 0.0189542033959 15.038850372520 0.9997814432888 -80.24252062043 0.9997814432888 -80.24252062043 0.0189488449107 4.6529875236327
8.757750000000000 0.0189524938557 15.038831175565 0.9997814603386 -80.24307813273 0.9997814603386 -80.24307813273 0.0189471323300 4.6519993131174
8.757800000000001 0.0189507804224 15.038813011219 0.9997814774085 -80.24363586920 0.9997814774085 -80.24363586920 0.0189454158461 4.6510099835734
8.757850000000001 0.0189490630864 15.038795884023 0.9997814944980 -80.24419383042 0.9997814944980 -80.24419383042 0.0189436954493 4.6500195334330
8.757900000000001 0.0189473418302 15.038779797160 0.9997815116077 -80.24475201738 0.9997815116077 -80.24475201738 0.0189419711220 4.6490279558283
8.757950000000001 0.0189456166428 15.038764755671 0.9997815287371 -80.24531043071 0.9997815287371 -80.24531043071 0.0189402428533 4.6480352490000
8.758000000000001 0.0189438875082 15.038750763252 0.9997815458866 -80.24586907134 0.9997815458866 -80.24586907134 0.0189385106272 4.6470414073460
8.758050000000001 0.0189421544172 15.038737823895 0.9997815630559 -80.24642793980 0.9997815630559 -80.24642793980 0.0189367744342 4.6460464289471
8.758100000000001 0.0189404173545 15.038725941522 0.9997815802451 -80.24698703697 0.9997815802451 -80.24698703697 0.0189350342591 4.6450503086641
8.758150000000001 0.0189386763061 15.038715120403 0.9997815974542 -80.24754636366 0.9997815974542 -80.24754636366 0.0189332900879 4.6440530425138
8.758200000000000 0.0189369312595 15.038705364730 0.9997816146833 -80.24810592059 0.9997816146833 -80.24810592059 0.0189315419080 4.6430546270376
8.758250000000000 0.0189351822001 15.038696678874 0.9997816319321 -80.24866570859 0.9997816319321 -80.24866570859 0.0189297897048 4.6420550579957
8.758300000000000 0.0189334291155 15.038689066502 0.9997816492010 -80.24922572840 0.9997816492010 -80.24922572840 0.0189280334658 4.6410543314059
8.758350000000000 0.0189316719913 15.038682531921 0.9997816664897 -80.24978598083 0.9997816664897 -80.24978598083 0.0189262731765 4.6400524430406
8.758400000000000 0.0189299108137 15.038677079899 0.9997816837983 -80.25034646668 0.9997816837983 -80.25034646668 0.0189245088231 4.6390493893921
8.758450000000000 0.0189281455696 15.038672714117 0.9997817011268 -80.25090718671 0.9997817011268 -80.25090718671 0.0189227403924 4.6380451661633
8.758500000000000 0.0189263762444 15.038669438918 0.9997817184751 -80.25146814175 0.9997817184751 -80.25146814175 0.0189209678699 4.6370397690430
8.758550000000001 0.0189246028243 15.038667258685 0.9997817358434 -80.25202933261 0.9997817358434 -80.25202933261 0.0189191912417 4.6360331940204
8.758600000000001 0.0189228252963 15.038666177855 0.9997817532315 -80.25259076003 0.9997817532315 -80.25259076003 0.0189174104946 4.6350254376551
8.758650000000001 0.0189210436455 15.038666200391 0.9997817706394 -80.25315242487 0.9997817706394 -80.25315242487 0.0189156256137 4.6340164949811
8.758700000000001 0.0189192578569 15.038667331186 0.9997817880672 -80.25371432800 0.9997817880672 -80.25371432800 0.0189138365841 4.6330063619919
8.758750000000001 0.0189174679183 15.038669573858 0.9997818055150 -80.25427647012 0.9997818055150 -80.25427647012 0.0189120433935 4.6319950347702
8.758800000000001 0.0189156738146 15.038672933906 0.9997818229823 -80.25483885210 0.9997818229823 -80.25483885210 0.0189102460266 4.6309825097318
8.758850000000001 0.0189138755323 15.038677414477 0.9997818404696 -80.25540147473 0.9997818404696 -80.25540147473 0.0189084444699 4.6299687818079
8.758900000000001 0.0189120730551 15.038683020866 0.9997818579768 -80.25596433892 0.9997818579768 -80.25596433892 0.0189066387072 4.6289538467144
8.758950000000000 0.0189102663695 15.038689757178 0.9997818755038 -80.25652744548 0.9997818755038 -80.25652744548 0.0189048287248 4.6279377002255
8.759000000000000 0.0189084554618 15.038697628447 0.9997818930504 -80.25709079519 0.9997818930504 -80.25709079519 0.0189030145090 4.6269203390766
8.759050000000000 0.0189066403166 15.038706638150 0.9997819106171 -80.25765438893 0.9997819106171 -80.25765438893 0.0189011960443 4.6259017575065
8.759100000000000 0.0189048209197 15.038716791678 0.9997819282034 -80.25821822752 0.9997819282034 -80.25821822752 0.0188993733164 4.6248819522748
8.759150000000000 0.0189029972560 15.038728093674 0.9997819458095 -80.25878231183 0.9997819458095 -80.25878231183 0.0188975463104 4.6238609189882
8.759200000000000 0.0189011693110 15.038740547782 0.9997819634355 -80.25934664271 0.9997819634355 -80.25934664271 0.0188957150115 4.6228386524247
8.759250000000000 0.0188993370699 15.038754159906 0.9997819810810 -80.25991122101 0.9997819810810 -80.25991122101 0.0188938794048 4.6218151494978
8.759300000000001 0.0188975005186 15.038768933558 0.9997819987464 -80.26047604752 0.9997819987464 -80.26047604752 0.0188920394764 4.6207904052481
8.759350000000001 0.0188956596407 15.038784873958 0.9997820164315 -80.26104112321 0.9997820164315 -80.26104112321 0.0188901952097 4.6197644149787
8.759400000000001 0.0188938144208 15.038801985968 0.9997820341364 -80.26160644896 0.9997820341364 -80.26160644896 0.0188883465891 4.6187371742445
8.759450000000001 0.0188919648466 15.038820273712 0.9997820518609 -80.26217202548 0.9997820518609 -80.26217202548 0.0188864936025 4.6177086795378
8.759500000000001 0.0188901109005 15.038839742251 0.9997820696051 -80.26273785379 0.9997820696051 -80.26273785379 0.0188846362321 4.6166789254003
8.759550000000001 0.0188882525669 15.038860396331 0.9997820873691 -80.26330393477 0.9997820873691 -80.26330393477 0.0188827744624 4.6156479072138
8.759600000000001 0.0188863898321 15.038882240998 0.9997821051527 -80.26387026923 0.9997821051527 -80.26387026923 0.0188809082794 4.6146156214808
8.759650000000001 0.0188845226804 15.038905280418 0.9997821229560 -80.26443685807 0.9997821229560 -80.26443685807 0.0188790376675 4.6135820629608
8.759700000000000 0.0188826510945 15.038929520521 0.9997821407788 -80.26500370228 0.9997821407788 -80.26500370228 0.0188771626093 4.6125472271676
8.759750000000000 0.0188807750618 15.038954965043 0.9997821586212 -80.26557080260 0.9997821586212 -80.26557080260 0.0188752830921 4.6115111098891
8.759800000000000 0.0188788945646 15.038981618933 0.9997821764835 -80.26613816004 0.9997821764835 -80.26613816004 0.0188733990983 4.6104737055900
8.759850000000000 0.0188770095880 15.039009487679 0.9997821943652 -80.26670577546 0.9997821943652 -80.26670577546 0.0188715106128 4.6094350105946
8.759900000000000 0.0188751201166 15.039038576495 0.9997822122664 -80.26727364976 0.9997822122664 -80.26727364976 0.0188696176200 4.6083950206394
8.759950000000000 0.0188732261351 15.039068889025 0.9997822301872 -80.26784178380 0.9997822301872 -80.26784178380 0.0188677201050 4.6073537301416
8.760000000000000 0.0188713276245 15.039100431470 0.9997822481277 -80.26841017869 0.9997822481277 -80.26841017869 0.0188658180482 4.6063111339201
8.760050000000000 0.0188694245722 15.039133208839 0.9997822660875 -80.26897883516 0.9997822660875 -80.26897883516 0.0188639114373 4.6052672290391