! Sonnet Data File
! From: emgraph Version : 16.52
! From Project: 171117_Xmon_fullysym
! Data is De-embedded 
! Data File Written: 11/27/2017 00:27:55
!< HDATE 11/26/2017 21:47:59
!< MDATE 11/26/2017 21:47:59
!< PARAMS
!< Lj = 11.0
!< Gap = 1.0
!< Pwid = 2000.0
!< Airgap = 6.0
!< Width = 10.0
!< Lj1 = 10.64
!< END PARAMS
# GHZ S MA R 50.90000
8.76000000 0.023223 -3.527 0.999726 -80.64 0.999726 -80.64 0.023224 22.271
!< P1 F=8.76 Eeff=(6.44841381 -2.9796e-5) Z0=(50.9085048 1.17026e-4) R=0.0 C=0.0 
!< P2 F=8.76 Eeff=(6.44841381 -2.9796e-5) Z0=(50.9085048 1.17026e-4) R=0.0 C=0.0 
8.76005000 0.023220 -3.529 0.999726 -80.64 0.999726 -80.64 0.023222 22.272
8.76010000 0.023217 -3.531 0.999726 -80.64 0.999726 -80.64 0.023219 22.273
8.76015000 0.023215 -3.534 0.999726 -80.64 0.999726 -80.64 0.023216 22.274
8.76020000 0.023212 -3.536 0.999726 -80.64 0.999726 -80.64 0.023214 22.276
8.76025000 0.023209 -3.538 0.999726 -80.64 0.999726 -80.64 0.023211 22.277
8.76030000 0.023207 -3.541 0.999726 -80.64 0.999726 -80.64 0.023208 22.278
8.76035000 0.023204 -3.543 0.999726 -80.64 0.999726 -80.64 0.023206 22.279
8.76040000 0.023201 -3.545 0.999726 -80.64 0.999726 -80.64 0.023203 22.280
8.76045000 0.023199 -3.548 0.999727 -80.64 0.999727 -80.64 0.023200 22.281
8.76050000 0.023196 -3.550 0.999727 -80.64 0.999727 -80.64 0.023197 22.282
8.76055000 0.023193 -3.553 0.999727 -80.64 0.999727 -80.64 0.023195 22.284
8.76060000 0.023191 -3.555 0.999727 -80.64 0.999727 -80.64 0.023192 22.285
8.76065000 0.023188 -3.557 0.999727 -80.64 0.999727 -80.64 0.023189 22.286
8.76070000 0.023185 -3.560 0.999727 -80.64 0.999727 -80.64 0.023187 22.287
8.76075000 0.023182 -3.562 0.999727 -80.64 0.999727 -80.64 0.023184 22.288
8.76080000 0.023180 -3.565 0.999727 -80.65 0.999727 -80.65 0.023181 22.289
8.76085000 0.023177 -3.567 0.999727 -80.65 0.999727 -80.65 0.023178 22.290
8.76090000 0.023174 -3.569 0.999727 -80.65 0.999727 -80.65 0.023176 22.292
8.76095000 0.023171 -3.572 0.999727 -80.65 0.999727 -80.65 0.023173 22.293
8.76100000 0.023169 -3.574 0.999727 -80.65 0.999727 -80.65 0.023170 22.294
8.76105000 0.023166 -3.577 0.999727 -80.65 0.999727 -80.65 0.023167 22.295
8.76110000 0.023163 -3.579 0.999727 -80.65 0.999727 -80.65 0.023165 22.296
8.76115000 0.023160 -3.582 0.999727 -80.65 0.999727 -80.65 0.023162 22.298
8.76120000 0.023157 -3.584 0.999727 -80.65 0.999727 -80.65 0.023159 22.299
8.76125000 0.023155 -3.586 0.999728 -80.65 0.999728 -80.65 0.023156 22.300
8.76130000 0.023152 -3.589 0.999728 -80.65 0.999728 -80.65 0.023153 22.301
8.76135000 0.023149 -3.591 0.999728 -80.65 0.999728 -80.65 0.023151 22.302
8.76140000 0.023146 -3.594 0.999728 -80.65 0.999728 -80.65 0.023148 22.304
8.76145000 0.023143 -3.596 0.999728 -80.65 0.999728 -80.65 0.023145 22.305
8.76150000 0.023141 -3.599 0.999728 -80.65 0.999728 -80.65 0.023142 22.306
8.76155000 0.023138 -3.601 0.999728 -80.65 0.999728 -80.65 0.023139 22.307
8.76160000 0.023135 -3.604 0.999728 -80.66 0.999728 -80.66 0.023136 22.309
8.76165000 0.023132 -3.606 0.999728 -80.66 0.999728 -80.66 0.023134 22.310
8.76170000 0.023129 -3.609 0.999728 -80.66 0.999728 -80.66 0.023131 22.311
8.76175000 0.023126 -3.611 0.999728 -80.66 0.999728 -80.66 0.023128 22.312
8.76180000 0.023123 -3.614 0.999728 -80.66 0.999728 -80.66 0.023125 22.314
8.76185000 0.023120 -3.616 0.999728 -80.66 0.999728 -80.66 0.023122 22.315
8.76190000 0.023118 -3.619 0.999728 -80.66 0.999728 -80.66 0.023119 22.316
8.76195000 0.023115 -3.621 0.999728 -80.66 0.999728 -80.66 0.023116 22.317
8.76200000 0.023112 -3.624 0.999728 -80.66 0.999728 -80.66 0.023113 22.319
8.76205000 0.023109 -3.626 0.999729 -80.66 0.999729 -80.66 0.023110 22.320
8.76210000 0.023106 -3.629 0.999729 -80.66 0.999729 -80.66 0.023108 22.321
8.76215000 0.023103 -3.631 0.999729 -80.66 0.999729 -80.66 0.023105 22.323
8.76220000 0.023100 -3.634 0.999729 -80.66 0.999729 -80.66 0.023102 22.324
8.76225000 0.023097 -3.637 0.999729 -80.66 0.999729 -80.66 0.023099 22.325
8.76230000 0.023094 -3.639 0.999729 -80.66 0.999729 -80.66 0.023096 22.326
8.76235000 0.023091 -3.642 0.999729 -80.67 0.999729 -80.67 0.023093 22.328
8.76240000 0.023088 -3.644 0.999729 -80.67 0.999729 -80.67 0.023090 22.329
8.76245000 0.023085 -3.647 0.999729 -80.67 0.999729 -80.67 0.023087 22.330
8.76250000 0.023082 -3.649 0.999729 -80.67 0.999729 -80.67 0.023084 22.332
8.76255000 0.023079 -3.652 0.999729 -80.67 0.999729 -80.67 0.023081 22.333
8.76260000 0.023076 -3.655 0.999729 -80.67 0.999729 -80.67 0.023078 22.334
8.76265000 0.023073 -3.657 0.999729 -80.67 0.999729 -80.67 0.023075 22.336
8.76270000 0.023070 -3.660 0.999729 -80.67 0.999729 -80.67 0.023072 22.337
8.76275000 0.023067 -3.662 0.999729 -80.67 0.999729 -80.67 0.023069 22.338
8.76280000 0.023064 -3.665 0.999730 -80.67 0.999730 -80.67 0.023066 22.340
8.76285000 0.023061 -3.668 0.999730 -80.67 0.999730 -80.67 0.023063 22.341
8.76290000 0.023058 -3.670 0.999730 -80.67 0.999730 -80.67 0.023060 22.342
8.76295000 0.023055 -3.673 0.999730 -80.67 0.999730 -80.67 0.023057 22.344
8.76300000 0.023052 -3.676 0.999730 -80.67 0.999730 -80.67 0.023054 22.345
8.76305000 0.023049 -3.678 0.999730 -80.67 0.999730 -80.67 0.023051 22.346
8.76310000 0.023046 -3.681 0.999730 -80.67 0.999730 -80.67 0.023048 22.348
8.76315000 0.023043 -3.684 0.999730 -80.68 0.999730 -80.68 0.023045 22.349
8.76320000 0.023040 -3.686 0.999730 -80.68 0.999730 -80.68 0.023042 22.351
8.76325000 0.023037 -3.689 0.999730 -80.68 0.999730 -80.68 0.023039 22.352
8.76330000 0.023034 -3.692 0.999730 -80.68 0.999730 -80.68 0.023036 22.353
8.76335000 0.023031 -3.694 0.999730 -80.68 0.999730 -80.68 0.023032 22.355
8.76340000 0.023028 -3.697 0.999730 -80.68 0.999730 -80.68 0.023029 22.356
8.76345000 0.023025 -3.700 0.999730 -80.68 0.999730 -80.68 0.023026 22.358
8.76350000 0.023021 -3.702 0.999730 -80.68 0.999730 -80.68 0.023023 22.359
8.76355000 0.023018 -3.705 0.999731 -80.68 0.999731 -80.68 0.023020 22.361
8.76360000 0.023015 -3.708 0.999731 -80.68 0.999731 -80.68 0.023017 22.362
8.76365000 0.023012 -3.710 0.999731 -80.68 0.999731 -80.68 0.023014 22.363
8.76370000 0.023009 -3.713 0.999731 -80.68 0.999731 -80.68 0.023011 22.365
8.76375000 0.023006 -3.716 0.999731 -80.68 0.999731 -80.68 0.023007 22.366
8.76380000 0.023003 -3.719 0.999731 -80.68 0.999731 -80.68 0.023004 22.368
8.76385000 0.022999 -3.721 0.999731 -80.68 0.999731 -80.68 0.023001 22.369
8.76390000 0.022996 -3.724 0.999731 -80.69 0.999731 -80.69 0.022998 22.371
8.76395000 0.022993 -3.727 0.999731 -80.69 0.999731 -80.69 0.022995 22.372
8.76400000 0.022990 -3.730 0.999731 -80.69 0.999731 -80.69 0.022991 22.374
8.76405000 0.022987 -3.732 0.999731 -80.69 0.999731 -80.69 0.022988 22.375
8.76410000 0.022983 -3.735 0.999731 -80.69 0.999731 -80.69 0.022985 22.377
8.76415000 0.022980 -3.738 0.999731 -80.69 0.999731 -80.69 0.022982 22.378
8.76420000 0.022977 -3.741 0.999731 -80.69 0.999731 -80.69 0.022979 22.380
8.76425000 0.022974 -3.744 0.999732 -80.69 0.999732 -80.69 0.022975 22.381
8.76430000 0.022970 -3.746 0.999732 -80.69 0.999732 -80.69 0.022972 22.383
8.76435000 0.022967 -3.749 0.999732 -80.69 0.999732 -80.69 0.022969 22.384
8.76440000 0.022964 -3.752 0.999732 -80.69 0.999732 -80.69 0.022966 22.386
8.76445000 0.022961 -3.755 0.999732 -80.69 0.999732 -80.69 0.022962 22.387
8.76450000 0.022957 -3.758 0.999732 -80.69 0.999732 -80.69 0.022959 22.389
8.76455000 0.022954 -3.760 0.999732 -80.69 0.999732 -80.69 0.022956 22.390
8.76460000 0.022951 -3.763 0.999732 -80.69 0.999732 -80.69 0.022952 22.392
8.76465000 0.022947 -3.766 0.999732 -80.69 0.999732 -80.69 0.022949 22.393
8.76470000 0.022944 -3.769 0.999732 -80.70 0.999732 -80.70 0.022946 22.395
8.76475000 0.022941 -3.772 0.999732 -80.70 0.999732 -80.70 0.022942 22.396
8.76480000 0.022937 -3.775 0.999732 -80.70 0.999732 -80.70 0.022939 22.398
8.76485000 0.022934 -3.778 0.999732 -80.70 0.999732 -80.70 0.022936 22.400
8.76490000 0.022931 -3.781 0.999732 -80.70 0.999732 -80.70 0.022932 22.401
8.76495000 0.022927 -3.783 0.999733 -80.70 0.999733 -80.70 0.022929 22.403
8.76500000 0.022924 -3.786 0.999733 -80.70 0.999733 -80.70 0.022926 22.404
8.76505000 0.022921 -3.789 0.999733 -80.70 0.999733 -80.70 0.022922 22.406
8.76510000 0.022917 -3.792 0.999733 -80.70 0.999733 -80.70 0.022919 22.408
8.76515000 0.022914 -3.795 0.999733 -80.70 0.999733 -80.70 0.022916 22.409
8.76520000 0.022910 -3.798 0.999733 -80.70 0.999733 -80.70 0.022912 22.411
8.76525000 0.022907 -3.801 0.999733 -80.70 0.999733 -80.70 0.022909 22.412
8.76530000 0.022904 -3.804 0.999733 -80.70 0.999733 -80.70 0.022905 22.414
8.76535000 0.022900 -3.807 0.999733 -80.70 0.999733 -80.70 0.022902 22.416
8.76540000 0.022897 -3.810 0.999733 -80.70 0.999733 -80.70 0.022898 22.417
8.76545000 0.022893 -3.813 0.999733 -80.71 0.999733 -80.71 0.022895 22.419
8.76550000 0.022890 -3.816 0.999733 -80.71 0.999733 -80.71 0.022891 22.421
8.76555000 0.022886 -3.819 0.999733 -80.71 0.999733 -80.71 0.022888 22.422
8.76560000 0.022883 -3.822 0.999734 -80.71 0.999734 -80.71 0.022884 22.424
8.76565000 0.022879 -3.825 0.999734 -80.71 0.999734 -80.71 0.022881 22.426
8.76570000 0.022876 -3.828 0.999734 -80.71 0.999734 -80.71 0.022877 22.427
8.76575000 0.022872 -3.831 0.999734 -80.71 0.999734 -80.71 0.022874 22.429
8.76580000 0.022869 -3.834 0.999734 -80.71 0.999734 -80.71 0.022870 22.431
8.76585000 0.022865 -3.837 0.999734 -80.71 0.999734 -80.71 0.022867 22.433
8.76590000 0.022862 -3.840 0.999734 -80.71 0.999734 -80.71 0.022863 22.434
8.76595000 0.022858 -3.843 0.999734 -80.71 0.999734 -80.71 0.022860 22.436
8.76600000 0.022854 -3.846 0.999734 -80.71 0.999734 -80.71 0.022856 22.438
8.76605000 0.022851 -3.849 0.999734 -80.71 0.999734 -80.71 0.022853 22.439
8.76610000 0.022847 -3.852 0.999734 -80.71 0.999734 -80.71 0.022849 22.441
8.76615000 0.022844 -3.855 0.999734 -80.72 0.999734 -80.72 0.022845 22.443
8.76620000 0.022840 -3.858 0.999734 -80.72 0.999734 -80.72 0.022842 22.445
8.76625000 0.022836 -3.861 0.999735 -80.72 0.999735 -80.72 0.022838 22.446
8.76630000 0.022833 -3.865 0.999735 -80.72 0.999735 -80.72 0.022835 22.448
8.76635000 0.022829 -3.868 0.999735 -80.72 0.999735 -80.72 0.022831 22.450
8.76640000 0.022826 -3.871 0.999735 -80.72 0.999735 -80.72 0.022827 22.452
8.76645000 0.022822 -3.874 0.999735 -80.72 0.999735 -80.72 0.022824 22.454
8.76650000 0.022818 -3.877 0.999735 -80.72 0.999735 -80.72 0.022820 22.455
8.76655000 0.022815 -3.880 0.999735 -80.72 0.999735 -80.72 0.022816 22.457
8.76660000 0.022811 -3.883 0.999735 -80.72 0.999735 -80.72 0.022813 22.459
8.76665000 0.022807 -3.887 0.999735 -80.72 0.999735 -80.72 0.022809 22.461
8.76670000 0.022803 -3.890 0.999735 -80.72 0.999735 -80.72 0.022805 22.463
8.76675000 0.022800 -3.893 0.999735 -80.72 0.999735 -80.72 0.022801 22.465
8.76680000 0.022796 -3.896 0.999735 -80.72 0.999735 -80.72 0.022798 22.466
8.76685000 0.022792 -3.899 0.999735 -80.72 0.999735 -80.72 0.022794 22.468
8.76690000 0.022788 -3.902 0.999736 -80.73 0.999736 -80.73 0.022790 22.470
8.76695000 0.022785 -3.906 0.999736 -80.73 0.999736 -80.73 0.022786 22.472
8.76700000 0.022781 -3.909 0.999736 -80.73 0.999736 -80.73 0.022783 22.474
8.76705000 0.022777 -3.912 0.999736 -80.73 0.999736 -80.73 0.022779 22.476
8.76710000 0.022773 -3.915 0.999736 -80.73 0.999736 -80.73 0.022775 22.478
8.76715000 0.022769 -3.919 0.999736 -80.73 0.999736 -80.73 0.022771 22.480
8.76720000 0.022766 -3.922 0.999736 -80.73 0.999736 -80.73 0.022767 22.481
8.76725000 0.022762 -3.925 0.999736 -80.73 0.999736 -80.73 0.022764 22.483
8.76730000 0.022758 -3.929 0.999736 -80.73 0.999736 -80.73 0.022760 22.485
8.76735000 0.022754 -3.932 0.999736 -80.73 0.999736 -80.73 0.022756 22.487
8.76740000 0.022750 -3.935 0.999736 -80.73 0.999736 -80.73 0.022752 22.489
8.76745000 0.022746 -3.938 0.999736 -80.73 0.999736 -80.73 0.022748 22.491
8.76750000 0.022742 -3.942 0.999737 -80.73 0.999737 -80.73 0.022744 22.493
8.76755000 0.022738 -3.945 0.999737 -80.73 0.999737 -80.73 0.022740 22.495
8.76760000 0.022735 -3.948 0.999737 -80.73 0.999737 -80.73 0.022736 22.497
8.76765000 0.022731 -3.952 0.999737 -80.74 0.999737 -80.74 0.022732 22.499
8.76770000 0.022727 -3.955 0.999737 -80.74 0.999737 -80.74 0.022728 22.501
8.76775000 0.022723 -3.959 0.999737 -80.74 0.999737 -80.74 0.022724 22.503
8.76780000 0.022719 -3.962 0.999737 -80.74 0.999737 -80.74 0.022721 22.505
8.76785000 0.022715 -3.965 0.999737 -80.74 0.999737 -80.74 0.022717 22.507
8.76790000 0.022711 -3.969 0.999737 -80.74 0.999737 -80.74 0.022713 22.509
8.76795000 0.022707 -3.972 0.999737 -80.74 0.999737 -80.74 0.022709 22.511
8.76800000 0.022703 -3.976 0.999737 -80.74 0.999737 -80.74 0.022704 22.513
8.76805000 0.022699 -3.979 0.999737 -80.74 0.999737 -80.74 0.022700 22.515
8.76810000 0.022695 -3.983 0.999738 -80.74 0.999738 -80.74 0.022696 22.517
8.76815000 0.022690 -3.986 0.999738 -80.74 0.999738 -80.74 0.022692 22.519
8.76820000 0.022686 -3.989 0.999738 -80.74 0.999738 -80.74 0.022688 22.522
8.76825000 0.022682 -3.993 0.999738 -80.74 0.999738 -80.74 0.022684 22.524
8.76830000 0.022678 -3.996 0.999738 -80.74 0.999738 -80.74 0.022680 22.526
8.76835000 0.022674 -4.000 0.999738 -80.75 0.999738 -80.75 0.022676 22.528
8.76840000 0.022670 -4.003 0.999738 -80.75 0.999738 -80.75 0.022672 22.530
8.76845000 0.022666 -4.007 0.999738 -80.75 0.999738 -80.75 0.022668 22.532
8.76850000 0.022662 -4.011 0.999738 -80.75 0.999738 -80.75 0.022664 22.534
8.76855000 0.022657 -4.014 0.999738 -80.75 0.999738 -80.75 0.022659 22.536
8.76860000 0.022653 -4.018 0.999738 -80.75 0.999738 -80.75 0.022655 22.539
8.76865000 0.022649 -4.021 0.999739 -80.75 0.999739 -80.75 0.022651 22.541
8.76870000 0.022645 -4.025 0.999739 -80.75 0.999739 -80.75 0.022647 22.543
8.76875000 0.022641 -4.028 0.999739 -80.75 0.999739 -80.75 0.022643 22.545
8.76880000 0.022636 -4.032 0.999739 -80.75 0.999739 -80.75 0.022638 22.547
8.76885000 0.022632 -4.036 0.999739 -80.75 0.999739 -80.75 0.022634 22.550
8.76890000 0.022628 -4.039 0.999739 -80.75 0.999739 -80.75 0.022630 22.552
8.76895000 0.022624 -4.043 0.999739 -80.75 0.999739 -80.75 0.022625 22.554
8.76900000 0.022619 -4.047 0.999739 -80.75 0.999739 -80.75 0.022621 22.556
8.76905000 0.022615 -4.050 0.999739 -80.76 0.999739 -80.76 0.022617 22.559
8.76910000 0.022611 -4.054 0.999739 -80.76 0.999739 -80.76 0.022613 22.561
8.76915000 0.022606 -4.058 0.999739 -80.76 0.999739 -80.76 0.022608 22.563
8.76920000 0.022602 -4.061 0.999740 -80.76 0.999740 -80.76 0.022604 22.565
8.76925000 0.022598 -4.065 0.999740 -80.76 0.999740 -80.76 0.022599 22.568
8.76930000 0.022593 -4.069 0.999740 -80.76 0.999740 -80.76 0.022595 22.570
8.76935000 0.022589 -4.072 0.999740 -80.76 0.999740 -80.76 0.022591 22.572
8.76940000 0.022584 -4.076 0.999740 -80.76 0.999740 -80.76 0.022586 22.575
8.76945000 0.022580 -4.080 0.999740 -80.76 0.999740 -80.76 0.022582 22.577
8.76950000 0.022575 -4.084 0.999740 -80.76 0.999740 -80.76 0.022577 22.579
8.76955000 0.022571 -4.088 0.999740 -80.76 0.999740 -80.76 0.022573 22.582
8.76960000 0.022566 -4.091 0.999740 -80.76 0.999740 -80.76 0.022568 22.584
8.76965000 0.022562 -4.095 0.999740 -80.76 0.999740 -80.76 0.022564 22.587
8.76970000 0.022557 -4.099 0.999741 -80.76 0.999741 -80.76 0.022559 22.589
8.76975000 0.022553 -4.103 0.999741 -80.77 0.999741 -80.77 0.022555 22.591
8.76980000 0.022548 -4.107 0.999741 -80.77 0.999741 -80.77 0.022550 22.594
8.76985000 0.022544 -4.111 0.999741 -80.77 0.999741 -80.77 0.022546 22.596
8.76990000 0.022539 -4.115 0.999741 -80.77 0.999741 -80.77 0.022541 22.599
8.76995000 0.022535 -4.118 0.999741 -80.77 0.999741 -80.77 0.022537 22.601
8.77000000 0.022530 -4.122 0.999741 -80.77 0.999741 -80.77 0.022532 22.604
8.77005000 0.022525 -4.126 0.999741 -80.77 0.999741 -80.77 0.022527 22.606
8.77010000 0.022521 -4.130 0.999741 -80.77 0.999741 -80.77 0.022523 22.609
8.77015000 0.022516 -4.134 0.999741 -80.77 0.999741 -80.77 0.022518 22.611
8.77020000 0.022511 -4.138 0.999741 -80.77 0.999741 -80.77 0.022513 22.614
8.77025000 0.022507 -4.142 0.999742 -80.77 0.999742 -80.77 0.022509 22.616
8.77030000 0.022502 -4.146 0.999742 -80.77 0.999742 -80.77 0.022504 22.619
8.77035000 0.022497 -4.150 0.999742 -80.77 0.999742 -80.77 0.022499 22.621
8.77040000 0.022492 -4.154 0.999742 -80.78 0.999742 -80.78 0.022494 22.624
8.77045000 0.022488 -4.158 0.999742 -80.78 0.999742 -80.78 0.022490 22.627
8.77050000 0.022483 -4.162 0.999742 -80.78 0.999742 -80.78 0.022485 22.629
8.77055000 0.022478 -4.166 0.999742 -80.78 0.999742 -80.78 0.022480 22.632
8.77060000 0.022473 -4.170 0.999742 -80.78 0.999742 -80.78 0.022475 22.634
8.77065000 0.022468 -4.175 0.999742 -80.78 0.999742 -80.78 0.022470 22.637
8.77070000 0.022463 -4.179 0.999742 -80.78 0.999742 -80.78 0.022466 22.640
8.77075000 0.022459 -4.183 0.999743 -80.78 0.999743 -80.78 0.022461 22.642
8.77080000 0.022454 -4.187 0.999743 -80.78 0.999743 -80.78 0.022456 22.645
8.77085000 0.022449 -4.191 0.999743 -80.78 0.999743 -80.78 0.022451 22.648
8.77090000 0.022444 -4.195 0.999743 -80.78 0.999743 -80.78 0.022446 22.650
8.77095000 0.022439 -4.200 0.999743 -80.78 0.999743 -80.78 0.022441 22.653
8.77100000 0.022434 -4.204 0.999743 -80.78 0.999743 -80.78 0.022436 22.656
8.77105000 0.022429 -4.208 0.999743 -80.78 0.999743 -80.78 0.022431 22.659
8.77110000 0.022424 -4.212 0.999743 -80.79 0.999743 -80.79 0.022426 22.661
8.77115000 0.022419 -4.217 0.999743 -80.79 0.999743 -80.79 0.022421 22.664
8.77120000 0.022414 -4.221 0.999744 -80.79 0.999744 -80.79 0.022416 22.667
8.77125000 0.022409 -4.225 0.999744 -80.79 0.999744 -80.79 0.022411 22.670
8.77130000 0.022404 -4.229 0.999744 -80.79 0.999744 -80.79 0.022406 22.673
8.77135000 0.022399 -4.234 0.999744 -80.79 0.999744 -80.79 0.022401 22.676
8.77140000 0.022393 -4.238 0.999744 -80.79 0.999744 -80.79 0.022395 22.678
8.77145000 0.022388 -4.242 0.999744 -80.79 0.999744 -80.79 0.022390 22.681
8.77150000 0.022383 -4.247 0.999744 -80.79 0.999744 -80.79 0.022385 22.684
8.77155000 0.022378 -4.251 0.999744 -80.79 0.999744 -80.79 0.022380 22.687
8.77160000 0.022373 -4.256 0.999744 -80.79 0.999744 -80.79 0.022375 22.690
8.77165000 0.022367 -4.260 0.999744 -80.79 0.999744 -80.79 0.022370 22.693
8.77170000 0.022362 -4.265 0.999745 -80.79 0.999745 -80.79 0.022364 22.696
8.77175000 0.022357 -4.269 0.999745 -80.80 0.999745 -80.80 0.022359 22.699
8.77180000 0.022352 -4.274 0.999745 -80.80 0.999745 -80.80 0.022354 22.702
8.77185000 0.022346 -4.278 0.999745 -80.80 0.999745 -80.80 0.022348 22.705
8.77190000 0.022341 -4.283 0.999745 -80.80 0.999745 -80.80 0.022343 22.708
8.77195000 0.022335 -4.287 0.999745 -80.80 0.999745 -80.80 0.022338 22.711
8.77200000 0.022330 -4.292 0.999745 -80.80 0.999745 -80.80 0.022332 22.714
8.77205000 0.022325 -4.296 0.999745 -80.80 0.999745 -80.80 0.022327 22.717
8.77210000 0.022319 -4.301 0.999745 -80.80 0.999745 -80.80 0.022321 22.720
8.77215000 0.022314 -4.306 0.999746 -80.80 0.999746 -80.80 0.022316 22.723
8.77220000 0.022308 -4.310 0.999746 -80.80 0.999746 -80.80 0.022310 22.726
8.77225000 0.022303 -4.315 0.999746 -80.80 0.999746 -80.80 0.022305 22.730
8.77230000 0.022297 -4.320 0.999746 -80.80 0.999746 -80.80 0.022299 22.733
8.77235000 0.022292 -4.324 0.999746 -80.81 0.999746 -80.81 0.022294 22.736
8.77240000 0.022286 -4.329 0.999746 -80.81 0.999746 -80.81 0.022288 22.739
8.77245000 0.022280 -4.334 0.999746 -80.81 0.999746 -80.81 0.022283 22.742
8.77250000 0.022275 -4.339 0.999746 -80.81 0.999746 -80.81 0.022277 22.745
8.77255000 0.022269 -4.343 0.999747 -80.81 0.999747 -80.81 0.022271 22.749
8.77260000 0.022264 -4.348 0.999747 -80.81 0.999747 -80.81 0.022266 22.752
8.77265000 0.022258 -4.353 0.999747 -80.81 0.999747 -80.81 0.022260 22.755
8.77270000 0.022252 -4.358 0.999747 -80.81 0.999747 -80.81 0.022254 22.759
8.77275000 0.022246 -4.363 0.999747 -80.81 0.999747 -80.81 0.022249 22.762
8.77280000 0.022241 -4.368 0.999747 -80.81 0.999747 -80.81 0.022243 22.765
8.77285000 0.022235 -4.373 0.999747 -80.81 0.999747 -80.81 0.022237 22.769
8.77290000 0.022229 -4.378 0.999747 -80.81 0.999747 -80.81 0.022231 22.772
8.77295000 0.022223 -4.383 0.999747 -80.81 0.999747 -80.81 0.022225 22.775
8.77300000 0.022217 -4.388 0.999748 -80.82 0.999748 -80.82 0.022219 22.779
8.77305000 0.022211 -4.393 0.999748 -80.82 0.999748 -80.82 0.022214 22.782
8.77310000 0.022205 -4.398 0.999748 -80.82 0.999748 -80.82 0.022208 22.786
8.77315000 0.022199 -4.403 0.999748 -80.82 0.999748 -80.82 0.022202 22.789
8.77320000 0.022193 -4.408 0.999748 -80.82 0.999748 -80.82 0.022196 22.793
8.77325000 0.022187 -4.413 0.999748 -80.82 0.999748 -80.82 0.022190 22.796
8.77330000 0.022181 -4.418 0.999748 -80.82 0.999748 -80.82 0.022184 22.800
8.77335000 0.022175 -4.423 0.999748 -80.82 0.999748 -80.82 0.022178 22.803
8.77340000 0.022169 -4.428 0.999749 -80.82 0.999749 -80.82 0.022171 22.807
8.77345000 0.022163 -4.434 0.999749 -80.82 0.999749 -80.82 0.022165 22.811
8.77350000 0.022157 -4.439 0.999749 -80.82 0.999749 -80.82 0.022159 22.814
8.77355000 0.022151 -4.444 0.999749 -80.82 0.999749 -80.82 0.022153 22.818
8.77360000 0.022144 -4.449 0.999749 -80.83 0.999749 -80.83 0.022147 22.822
8.77365000 0.022138 -4.455 0.999749 -80.83 0.999749 -80.83 0.022141 22.825
8.77370000 0.022132 -4.460 0.999749 -80.83 0.999749 -80.83 0.022134 22.829
8.77375000 0.022126 -4.465 0.999749 -80.83 0.999749 -80.83 0.022128 22.833
8.77380000 0.022119 -4.471 0.999750 -80.83 0.999750 -80.83 0.022122 22.837
8.77385000 0.022113 -4.476 0.999750 -80.83 0.999750 -80.83 0.022115 22.840
8.77390000 0.022106 -4.482 0.999750 -80.83 0.999750 -80.83 0.022109 22.844
8.77395000 0.022100 -4.487 0.999750 -80.83 0.999750 -80.83 0.022102 22.848
8.77400000 0.022094 -4.493 0.999750 -80.83 0.999750 -80.83 0.022096 22.852
8.77405000 0.022087 -4.498 0.999750 -80.83 0.999750 -80.83 0.022089 22.856
8.77410000 0.022080 -4.504 0.999750 -80.83 0.999750 -80.83 0.022083 22.860
8.77415000 0.022074 -4.509 0.999750 -80.83 0.999750 -80.83 0.022076 22.864
8.77420000 0.022067 -4.515 0.999751 -80.84 0.999751 -80.84 0.022070 22.868
8.77425000 0.022061 -4.521 0.999751 -80.84 0.999751 -80.84 0.022063 22.872
8.77430000 0.022054 -4.526 0.999751 -80.84 0.999751 -80.84 0.022056 22.876
8.77435000 0.022047 -4.532 0.999751 -80.84 0.999751 -80.84 0.022050 22.880
8.77440000 0.022041 -4.538 0.999751 -80.84 0.999751 -80.84 0.022043 22.884
8.77445000 0.022034 -4.544 0.999751 -80.84 0.999751 -80.84 0.022036 22.888
8.77450000 0.022027 -4.549 0.999751 -80.84 0.999751 -80.84 0.022030 22.892
8.77455000 0.022020 -4.555 0.999752 -80.84 0.999752 -80.84 0.022023 22.896
8.77460000 0.022013 -4.561 0.999752 -80.84 0.999752 -80.84 0.022016 22.901
8.77465000 0.022006 -4.567 0.999752 -80.84 0.999752 -80.84 0.022009 22.905
8.77470000 0.021999 -4.573 0.999752 -80.84 0.999752 -80.84 0.022002 22.909
8.77475000 0.021992 -4.579 0.999752 -80.85 0.999752 -80.85 0.021995 22.913
8.77480000 0.021985 -4.585 0.999752 -80.85 0.999752 -80.85 0.021988 22.918
8.77485000 0.021978 -4.591 0.999752 -80.85 0.999752 -80.85 0.021981 22.922
8.77490000 0.021971 -4.597 0.999753 -80.85 0.999753 -80.85 0.021974 22.926
8.77495000 0.021964 -4.603 0.999753 -80.85 0.999753 -80.85 0.021967 22.931
8.77500000 0.021957 -4.609 0.999753 -80.85 0.999753 -80.85 0.021960 22.935
8.77505000 0.021950 -4.615 0.999753 -80.85 0.999753 -80.85 0.021952 22.940
8.77510000 0.021943 -4.621 0.999753 -80.85 0.999753 -80.85 0.021945 22.944
8.77515000 0.021935 -4.628 0.999753 -80.85 0.999753 -80.85 0.021938 22.949
8.77520000 0.021928 -4.634 0.999753 -80.85 0.999753 -80.85 0.021931 22.953
8.77525000 0.021921 -4.640 0.999754 -80.85 0.999754 -80.85 0.021923 22.958
8.77530000 0.021913 -4.647 0.999754 -80.86 0.999754 -80.86 0.021916 22.962
8.77535000 0.021906 -4.653 0.999754 -80.86 0.999754 -80.86 0.021908 22.967
8.77540000 0.021898 -4.659 0.999754 -80.86 0.999754 -80.86 0.021901 22.972
8.77545000 0.021891 -4.666 0.999754 -80.86 0.999754 -80.86 0.021893 22.976
8.77550000 0.021883 -4.672 0.999754 -80.86 0.999754 -80.86 0.021886 22.981
8.77555000 0.021876 -4.679 0.999754 -80.86 0.999754 -80.86 0.021878 22.986
8.77560000 0.021868 -4.685 0.999755 -80.86 0.999755 -80.86 0.021871 22.991
8.77565000 0.021860 -4.692 0.999755 -80.86 0.999755 -80.86 0.021863 22.996
8.77570000 0.021852 -4.699 0.999755 -80.86 0.999755 -80.86 0.021855 23.001
8.77575000 0.021845 -4.705 0.999755 -80.86 0.999755 -80.86 0.021847 23.006
8.77580000 0.021837 -4.712 0.999755 -80.86 0.999755 -80.86 0.021840 23.010
8.77585000 0.021829 -4.719 0.999755 -80.87 0.999755 -80.87 0.021832 23.015
8.77590000 0.021821 -4.726 0.999756 -80.87 0.999756 -80.87 0.021824 23.021
8.77595000 0.021813 -4.732 0.999756 -80.87 0.999756 -80.87 0.021816 23.026
8.77600000 0.021805 -4.739 0.999756 -80.87 0.999756 -80.87 0.021808 23.031
8.77605000 0.021797 -4.746 0.999756 -80.87 0.999756 -80.87 0.021800 23.036
8.77610000 0.021789 -4.753 0.999756 -80.87 0.999756 -80.87 0.021792 23.041
8.77615000 0.021781 -4.760 0.999756 -80.87 0.999756 -80.87 0.021783 23.046
8.77620000 0.021772 -4.767 0.999756 -80.87 0.999756 -80.87 0.021775 23.052
8.77625000 0.021764 -4.775 0.999757 -80.87 0.999757 -80.87 0.021767 23.057
8.77630000 0.021756 -4.782 0.999757 -80.87 0.999757 -80.87 0.021759 23.062
8.77635000 0.021747 -4.789 0.999757 -80.87 0.999757 -80.87 0.021750 23.068
8.77640000 0.021739 -4.796 0.999757 -80.88 0.999757 -80.88 0.021742 23.073
8.77645000 0.021731 -4.803 0.999757 -80.88 0.999757 -80.88 0.021733 23.079
8.77650000 0.021722 -4.811 0.999757 -80.88 0.999757 -80.88 0.021725 23.084
8.77655000 0.021713 -4.818 0.999758 -80.88 0.999758 -80.88 0.021716 23.090
8.77660000 0.021705 -4.826 0.999758 -80.88 0.999758 -80.88 0.021708 23.095
8.77665000 0.021696 -4.833 0.999758 -80.88 0.999758 -80.88 0.021699 23.101
8.77670000 0.021687 -4.841 0.999758 -80.88 0.999758 -80.88 0.021690 23.107
8.77675000 0.021679 -4.848 0.999758 -80.88 0.999758 -80.88 0.021682 23.112
8.77680000 0.021670 -4.856 0.999758 -80.88 0.999758 -80.88 0.021673 23.118
8.77685000 0.021661 -4.864 0.999759 -80.88 0.999759 -80.88 0.021664 23.124
8.77690000 0.021652 -4.871 0.999759 -80.89 0.999759 -80.89 0.021655 23.130
8.77695000 0.021643 -4.879 0.999759 -80.89 0.999759 -80.89 0.021646 23.136
8.77700000 0.021634 -4.887 0.999759 -80.89 0.999759 -80.89 0.021637 23.142
8.77705000 0.021625 -4.895 0.999759 -80.89 0.999759 -80.89 0.021628 23.148
8.77710000 0.021615 -4.903 0.999759 -80.89 0.999759 -80.89 0.021619 23.154
8.77715000 0.021606 -4.911 0.999760 -80.89 0.999760 -80.89 0.021609 23.160
8.77720000 0.021597 -4.919 0.999760 -80.89 0.999760 -80.89 0.021600 23.166
8.77725000 0.021587 -4.927 0.999760 -80.89 0.999760 -80.89 0.021591 23.173
8.77730000 0.021578 -4.936 0.999760 -80.89 0.999760 -80.89 0.021581 23.179
8.77735000 0.021568 -4.944 0.999760 -80.89 0.999760 -80.89 0.021572 23.185
8.77740000 0.021559 -4.952 0.999761 -80.90 0.999761 -80.90 0.021562 23.192
8.77745000 0.021549 -4.961 0.999761 -80.90 0.999761 -80.90 0.021552 23.198
8.77750000 0.021540 -4.969 0.999761 -80.90 0.999761 -80.90 0.021543 23.205
8.77755000 0.021530 -4.978 0.999761 -80.90 0.999761 -80.90 0.021533 23.211
8.77760000 0.021520 -4.986 0.999761 -80.90 0.999761 -80.90 0.021523 23.218
8.77765000 0.021510 -4.995 0.999761 -80.90 0.999761 -80.90 0.021513 23.225
8.77770000 0.021500 -5.003 0.999762 -80.90 0.999762 -80.90 0.021503 23.231
8.77775000 0.021490 -5.012 0.999762 -80.90 0.999762 -80.90 0.021493 23.238
8.77780000 0.021480 -5.021 0.999762 -80.90 0.999762 -80.90 0.021483 23.245
8.77785000 0.021470 -5.030 0.999762 -80.91 0.999762 -80.91 0.021473 23.252
8.77790000 0.021459 -5.039 0.999762 -80.91 0.999762 -80.91 0.021463 23.259
8.77795000 0.021449 -5.048 0.999763 -80.91 0.999763 -80.91 0.021452 23.266
8.77800000 0.021438 -5.057 0.999763 -80.91 0.999763 -80.91 0.021442 23.273
8.77805000 0.021428 -5.066 0.999763 -80.91 0.999763 -80.91 0.021431 23.280
8.77810000 0.021417 -5.076 0.999763 -80.91 0.999763 -80.91 0.021421 23.288
8.77815000 0.021407 -5.085 0.999763 -80.91 0.999763 -80.91 0.021410 23.295
8.77820000 0.021396 -5.095 0.999764 -80.91 0.999764 -80.91 0.021399 23.302
8.77825000 0.021385 -5.104 0.999764 -80.91 0.999764 -80.91 0.021389 23.310
8.77830000 0.021374 -5.114 0.999764 -80.91 0.999764 -80.91 0.021378 23.317
8.77835000 0.021363 -5.123 0.999764 -80.92 0.999764 -80.92 0.021367 23.325
8.77840000 0.021352 -5.133 0.999764 -80.92 0.999764 -80.92 0.021356 23.333
8.77845000 0.021341 -5.143 0.999765 -80.92 0.999765 -80.92 0.021345 23.340
8.77850000 0.021330 -5.153 0.999765 -80.92 0.999765 -80.92 0.021333 23.348
8.77855000 0.021318 -5.163 0.999765 -80.92 0.999765 -80.92 0.021322 23.356
8.77860000 0.021307 -5.173 0.999765 -80.92 0.999765 -80.92 0.021311 23.364
8.77865000 0.021295 -5.183 0.999765 -80.92 0.999765 -80.92 0.021299 23.372
8.77870000 0.021284 -5.193 0.999766 -80.92 0.999766 -80.92 0.021288 23.380
8.77875000 0.021272 -5.204 0.999766 -80.93 0.999766 -80.93 0.021276 23.389
8.77880000 0.021260 -5.214 0.999766 -80.93 0.999766 -80.93 0.021264 23.397
8.77885000 0.021249 -5.225 0.999766 -80.93 0.999766 -80.93 0.021252 23.405
8.77890000 0.021237 -5.235 0.999766 -80.93 0.999766 -80.93 0.021240 23.414
8.77895000 0.021224 -5.246 0.999767 -80.93 0.999767 -80.93 0.021228 23.422
8.77900000 0.021212 -5.257 0.999767 -80.93 0.999767 -80.93 0.021216 23.431
8.77905000 0.021200 -5.268 0.999767 -80.93 0.999767 -80.93 0.021204 23.440
8.77910000 0.021188 -5.279 0.999767 -80.93 0.999767 -80.93 0.021191 23.449
8.77915000 0.021175 -5.290 0.999768 -80.93 0.999768 -80.93 0.021179 23.457
8.77920000 0.021163 -5.301 0.999768 -80.94 0.999768 -80.94 0.021166 23.466
8.77925000 0.021150 -5.312 0.999768 -80.94 0.999768 -80.94 0.021154 23.476
8.77930000 0.021137 -5.324 0.999768 -80.94 0.999768 -80.94 0.021141 23.485
8.77935000 0.021124 -5.335 0.999768 -80.94 0.999768 -80.94 0.021128 23.494
8.77940000 0.021111 -5.347 0.999769 -80.94 0.999769 -80.94 0.021115 23.504
8.77945000 0.021098 -5.359 0.999769 -80.94 0.999769 -80.94 0.021102 23.513
8.77950000 0.021085 -5.370 0.999769 -80.94 0.999769 -80.94 0.021089 23.523
8.77955000 0.021071 -5.382 0.999769 -80.94 0.999769 -80.94 0.021075 23.532
8.77960000 0.021058 -5.395 0.999770 -80.95 0.999770 -80.95 0.021062 23.542