! Sonnet Data File
! From: emgraph Version : 16.52
! From Project: 171117_Xmon_fullysym
! Data is De-embedded 
! Data File Written: 11/26/2017 17:14:22
!< HDATE 11/22/2017 16:48:52
!< MDATE 11/23/2017 10:16:42
!< PARAMS
!< Lj = 11.0
!< Gap = 1.0
!< Pwid = 2000.0
!< Airgap = 6.0
!< Width = 10.0
!< Lj1 = 10.1
!< END PARAMS
# GHZ S MA R 50.90000
8.680000000000000 0.0252138708952 -1.446769339516 0.9996786919110 -79.77694832215 0.9996786919095 -79.77694832203 0.0252148758820 21.903446088697
!< P1 F=8.68 Eeff=(6.44843488 -2.9797e-5) Z0=(50.9086135 1.17022e-4) R=0.0 C=0.0 
!< P2 F=8.68 Eeff=(6.44843488 -2.9797e-5) Z0=(50.9086135 1.17022e-4) R=0.0 C=0.0 
8.680100000000001 0.0252131841517 -1.448306439299 0.9996787088078 -79.77791593252 0.9996787088078 -79.77791593252 0.0252141892838 21.903049140738
8.680200000000001 0.0252124961290 -1.449844271726 0.9996787257357 -79.77888361782 0.9996787257357 -79.77888361782 0.0252135014083 21.902652786060
8.680300000000001 0.0252118068205 -1.451382845870 0.9996787426950 -79.77985137835 0.9996787426950 -79.77985137835 0.0252128122474 21.902257027475
8.680400000000001 0.0252111162227 -1.452922164643 0.9996787596862 -79.78081921432 0.9996787596862 -79.78081921432 0.0252121217974 21.901861865828
8.680500000000000 0.0252104243318 -1.454462229806 0.9996787767093 -79.78178712595 0.9996787767093 -79.78178712595 0.0252114300548 21.901467303342
8.680600000000000 0.0252097311449 -1.456003042973 0.9996787937642 -79.78275511343 0.9996787937642 -79.78275511343 0.0252107370165 21.901073341699
8.680700000000000 0.0252090366597 -1.457544606164 0.9996788108512 -79.78372317687 0.9996788108512 -79.78372317687 0.0252100426803 21.900679981389
8.680800000000001 0.0252083408723 -1.459086921066 0.9996788279702 -79.78469131651 0.9996788279702 -79.78469131651 0.0252093470423 21.900287224899
8.680900000000001 0.0252076437799 -1.460629989562 0.9996788451213 -79.78565953251 0.9996788451213 -79.78565953251 0.0252086500996 21.899895073373
8.681000000000001 0.0252069453802 -1.462173813097 0.9996788623045 -79.78662782501 0.9996788623045 -79.78662782501 0.0252079518500 21.899503528140
8.681100000000001 0.0252062456699 -1.463718393778 0.9996788795201 -79.78759619421 0.9996788795201 -79.78759619421 0.0252072522902 21.899112590454
8.681200000000000 0.0252055446437 -1.465263734642 0.9996788967680 -79.78856464041 0.9996788967680 -79.78856464041 0.0252065514148 21.898722263066
8.681300000000000 0.0252048423008 -1.466809836142 0.9996789140483 -79.78953316367 0.9996789140483 -79.78953316367 0.0252058492232 21.898332546401
8.681400000000000 0.0252041386370 -1.468356701222 0.9996789313612 -79.79050176423 0.9996789313612 -79.79050176423 0.0252051457109 21.897943442238
8.681500000000000 0.0252034336480 -1.469904331744 0.9996789487066 -79.79147044234 0.9996789487066 -79.79147044234 0.0252044408738 21.897554953072
8.681600000000001 0.0252027273335 -1.471452728275 0.9996789660846 -79.79243919801 0.9996789660846 -79.79243919801 0.0252037347117 21.897167079006
8.681700000000001 0.0252020196873 -1.473001894797 0.9996789834955 -79.79340803163 0.9996789834955 -79.79340803163 0.0252030272181 21.896779822664
8.681800000000001 0.0252013107091 -1.474551831262 0.9996790009391 -79.79437694320 0.9996790009391 -79.79437694320 0.0252023183929 21.896393184620
8.681900000000001 0.0252006003923 -1.476102541220 0.9996790184155 -79.79534593311 0.9996790184155 -79.79534593311 0.0252016082297 21.896007168005
8.682000000000000 0.0251998887354 -1.477654026510 0.9996790359250 -79.79631500145 0.9996790359250 -79.79631500145 0.0252008967265 21.895621773102
8.682100000000000 0.0251991757356 -1.479206287646 0.9996790534673 -79.79728414838 0.9996790534673 -79.79728414838 0.0252001838810 21.895237002324
8.682200000000000 0.0251984613893 -1.480759327764 0.9996790710429 -79.79825337412 0.9996790710429 -79.79825337412 0.0251994696893 21.894852856432
8.682300000000000 0.0251977456929 -1.482313148836 0.9996790886517 -79.79922267889 0.9996790886517 -79.79922267889 0.0251987541477 21.894469337520
8.682400000000001 0.0251970286432 -1.483867752477 0.9996791062937 -79.80019206285 0.9996791062937 -79.80019206285 0.0251980372535 21.894086447166
8.682500000000001 0.0251963102367 -1.485423141031 0.9996791239690 -79.80116152622 0.9996791239690 -79.80116152622 0.0251973190027 21.893704187061
8.682600000000001 0.0251955904705 -1.486979316066 0.9996791416777 -79.80213106918 0.9996791416777 -79.80213106918 0.0251965993926 21.893322558802
8.682700000000001 0.0251948693416 -1.488536279785 0.9996791594200 -79.80310069190 0.9996791594200 -79.80310069190 0.0251958784202 21.892941563485
8.682800000000000 0.0251941468447 -1.490094034960 0.9996791771959 -79.80407039469 0.9996791771959 -79.80407039469 0.0251951560802 21.892561203866
8.682900000000000 0.0251934229804 -1.491652581534 0.9996791950053 -79.80504017752 0.9996791950053 -79.80504017752 0.0251944323731 21.892181479929
8.683000000000000 0.0251926977408 -1.493211924223 0.9996792128486 -79.80601004085 0.9996792128486 -79.80601004085 0.0251937072911 21.891802394942
8.683100000000001 0.0251919711248 -1.494772063281 0.9996792307256 -79.80697998474 0.9996792307256 -79.80697998474 0.0251929808332 21.891423950031
8.683200000000001 0.0251912431295 -1.496333001002 0.9996792486366 -79.80795000937 0.9996792486366 -79.80795000937 0.0251922529963 21.891046146374
8.683300000000001 0.0251905137498 -1.497894740229 0.9996792665816 -79.80892011503 0.9996792665816 -79.80892011503 0.0251915237754 21.890668986325
8.683400000000001 0.0251897829829 -1.499457282570 0.9996792845606 -79.80989030189 0.9996792845606 -79.80989030189 0.0251907931677 21.890292471409
8.683500000000000 0.0251890508260 -1.501020629977 0.9996793025737 -79.81086057013 0.9996793025737 -79.81086057013 0.0251900611703 21.889916602960
8.683600000000000 0.0251883172774 -1.502584783148 0.9996793206210 -79.81183091982 0.9996793206210 -79.81183091982 0.0251893277818 21.889541382072
8.683700000000000 0.0251875823286 -1.504149747415 0.9996793387027 -79.81280135148 0.9996793387027 -79.81280135148 0.0251885929934 21.889166812372
8.683800000000000 0.0251868459812 -1.505715521940 0.9996793568188 -79.81377186502 0.9996793568188 -79.81377186502 0.0251878568068 21.888792893406
8.683900000000001 0.0251861082288 -1.507282110021 0.9996793749692 -79.81474246080 0.9996793749692 -79.81474246080 0.0251871192156 21.888419628577
8.684000000000001 0.0251853690705 -1.508849512883 0.9996793931542 -79.81571313888 0.9996793931542 -79.81571313888 0.0251863802189 21.888047017939
8.684100000000001 0.0251846284991 -1.510417734796 0.9996794113740 -79.81668389969 0.9996794113740 -79.81668389969 0.0251856398094 21.887675064717
8.684200000000001 0.0251838865152 -1.511986774878 0.9996794296282 -79.81765474319 0.9996794296282 -79.81765474319 0.0251848979880 21.887303769484
8.684300000000000 0.0251831431115 -1.513556637980 0.9996794479174 -79.81862566981 0.9996794479174 -79.81862566981 0.0251841547470 21.886933135080
8.684400000000000 0.0251823982875 -1.515127324407 0.9996794662415 -79.81959667958 0.9996794662415 -79.81959667958 0.0251834100862 21.886563162040
8.684500000000000 0.0251816520374 -1.516698837182 0.9996794846004 -79.82056777283 0.9996794846004 -79.82056777283 0.0251826639998 21.886193853280
8.684600000000000 0.0251809043589 -1.518271178241 0.9996795029944 -79.82153894971 0.9996795029944 -79.82153894971 0.0251819164853 21.885825209756
8.684700000000001 0.0251801552486 -1.519844349462 0.9996795214236 -79.82251021041 0.9996795214236 -79.82251021041 0.0251811675394 21.885457233236
8.684800000000001 0.0251794047017 -1.521418353891 0.9996795398880 -79.82348155523 0.9996795398880 -79.82348155523 0.0251804171573 21.885089925818
8.684900000000001 0.0251786527160 -1.522993192589 0.9996795583877 -79.82445298428 0.9996795583877 -79.82445298428 0.0251796653369 21.884723288937
8.685000000000000 0.0251778992871 -1.524568868472 0.9996795769228 -79.82542449783 0.9996795769228 -79.82542449783 0.0251789120735 21.884357324537
8.685100000000000 0.0251771444117 -1.526145383173 0.9996795954932 -79.82639609606 0.9996795954932 -79.82639609606 0.0251781573642 21.883992034440
8.685200000000000 0.0251763880857 -1.527722739340 0.9996796140992 -79.82736777923 0.9996796140992 -79.82736777923 0.0251774012047 21.883627420634
8.685300000000000 0.0251756303078 -1.529300938169 0.9996796327410 -79.82833954740 0.9996796327410 -79.82833954740 0.0251766435937 21.883263483397
8.685400000000001 0.0251748710697 -1.530879984140 0.9996796514184 -79.82931140108 0.9996796514184 -79.82931140108 0.0251758845229 21.882900227063
8.685500000000001 0.0251741103714 -1.532459877659 0.9996796701317 -79.83028334025 0.9996796701317 -79.83028334025 0.0251751239922 21.882537651547
8.685600000000001 0.0251733482089 -1.534040620380 0.9996796888807 -79.83125536514 0.9996796888807 -79.83125536514 0.0251743619980 21.882175759364
8.685700000000001 0.0251725845777 -1.535622215990 0.9996797076658 -79.83222747604 0.9996797076658 -79.83222747604 0.0251735985353 21.881814551975
8.685800000000000 0.0251718194744 -1.537204666237 0.9996797264870 -79.83319967313 0.9996797264870 -79.83319967313 0.0251728336010 21.881454031141
8.685900000000000 0.0251710528945 -1.538787973570 0.9996797453443 -79.83417195669 0.9996797453443 -79.83417195669 0.0251720671904 21.881094199448
8.686000000000000 0.0251702848356 -1.540372139652 0.9996797642379 -79.83514432684 0.9996797642379 -79.83514432684 0.0251712993014 21.880735057801
8.686100000000000 0.0251695152932 -1.541957167216 0.9996797831678 -79.83611678387 0.9996797831678 -79.83611678387 0.0251705299292 21.880376608563
8.686200000000001 0.0251687442635 -1.543543058537 0.9996798021342 -79.83708932799 0.9996798021342 -79.83708932799 0.0251697590702 21.880018853435
8.686300000000001 0.0251679717422 -1.545129816153 0.9996798211370 -79.83806195944 0.9996798211370 -79.83806195944 0.0251689867200 21.879661794588
8.686400000000001 0.0251671977282 -1.546717440952 0.9996798401764 -79.83903467831 0.9996798401764 -79.83903467831 0.0251682128775 21.879305432673
8.686500000000001 0.0251664222130 -1.548305937440 0.9996798592525 -79.84000748509 0.9996798592525 -79.84000748509 0.0251674375342 21.878949772028
8.686600000000000 0.0251656451975 -1.549895306049 0.9996798783654 -79.84098037972 0.9996798783654 -79.84098037972 0.0251666606911 21.878594811624
8.686700000000000 0.0251648666759 -1.551485549636 0.9996798975152 -79.84195336256 0.9996798975152 -79.84195336256 0.0251658823423 21.878240554863
8.686800000000000 0.0251640866429 -1.553076671163 0.9996799167017 -79.84292643389 0.9996799167017 -79.84292643389 0.0251651024827 21.877887004302
8.686900000000001 0.0251633050975 -1.554668672342 0.9996799359256 -79.84389959380 0.9996799359256 -79.84389959380 0.0251643211109 21.877534159838
8.687000000000001 0.0251625220348 -1.556261555139 0.9996799551864 -79.84487284257 0.9996799551864 -79.84487284257 0.0251635382223 21.877182024729
8.687100000000001 0.0251617374495 -1.557855323169 0.9996799744846 -79.84584618049 0.9996799744846 -79.84584618049 0.0251627538116 21.876830600829
8.687200000000001 0.0251609513392 -1.559449977546 0.9996799938200 -79.84681960774 0.9996799938200 -79.84681960774 0.0251619678763 21.876479890040
8.687300000000000 0.0251601637002 -1.561045520944 0.9996800131928 -79.84779312451 0.9996800131928 -79.84779312451 0.0251611804127 21.876129893717
8.687400000000000 0.0251593745271 -1.562641956468 0.9996800326032 -79.84876673112 0.9996800326032 -79.84876673112 0.0251603914155 21.875780614451
8.687500000000000 0.0251585838181 -1.564239284901 0.9996800520510 -79.84974042768 0.9996800520510 -79.84974042768 0.0251596008829 21.875432053713
8.687600000000000 0.0251577915679 -1.565837510365 0.9996800715367 -79.85071421451 0.9996800715368 -79.85071421451 0.0251588088094 21.875084213115
8.687700000000001 0.0251569977720 -1.567436634623 0.9996800910602 -79.85168809186 0.9996800910602 -79.85168809186 0.0251580151907 21.874737095734
8.687800000000001 0.0251562024274 -1.569036659688 0.9996801106213 -79.85266205992 0.9996801106213 -79.85266205992 0.0251572200238 21.874390702952
8.687900000000001 0.0251554055302 -1.570637588540 0.9996801302207 -79.85363611891 0.9996801302207 -79.85363611891 0.0251564233047 21.874045036143
8.688000000000001 0.0251546070770 -1.572239422655 0.9996801498580 -79.85461026904 0.9996801498580 -79.85461026904 0.0251556250300 21.873700097528
8.688100000000000 0.0251538070615 -1.573842165808 0.9996801695334 -79.85558451066 0.9996801695334 -79.85558451066 0.0251548251936 21.873355890030
8.688200000000000 0.0251530054813 -1.575445819711 0.9996801892471 -79.85655884394 0.9996801892471 -79.85655884394 0.0251540237929 21.873012414887
8.688300000000000 0.0251522023315 -1.577050387351 0.9996802089992 -79.85753326915 0.9996802089992 -79.85753326915 0.0251532208230 21.872669674283
8.688400000000000 0.0251513976101 -1.578655869946 0.9996802287897 -79.85850778641 0.9996802287897 -79.85850778641 0.0251524162819 21.872327669558
8.688500000000001 0.0251505913113 -1.580262270873 0.9996802486187 -79.85948239606 0.9996802486187 -79.85948239606 0.0251516101639 21.871986403317
8.688600000000001 0.0251497834317 -1.581869591965 0.9996802684862 -79.86045709831 0.9996802684862 -79.86045709831 0.0251508024657 21.871645877646
8.688700000000001 0.0251489739653 -1.583477837403 0.9996802883926 -79.86143189350 0.9996802883926 -79.86143189350 0.0251499931810 21.871306094843
8.688800000000001 0.0251481629112 -1.585087007519 0.9996803083377 -79.86240678169 0.9996803083377 -79.86240678169 0.0251491823091 21.870967055770
8.688900000000000 0.0251473502621 -1.586697106659 0.9996803283218 -79.86338176331 0.9996803283218 -79.86338176331 0.0251483698427 21.870628763917
8.689000000000000 0.0251465360171 -1.588308135863 0.9996803483450 -79.86435683842 0.9996803483450 -79.86435683842 0.0251475557808 21.870291219601
8.689100000000000 0.0251457201690 -1.589920098595 0.9996803684072 -79.86533200742 0.9996803684072 -79.86533200742 0.0251467401164 21.869954426693
8.689200000000001 0.0251449027157 -1.591532996905 0.9996803885087 -79.86630727046 0.9996803885087 -79.86630727046 0.0251459228470 21.869618386064
8.689300000000001 0.0251440836526 -1.593146833065 0.9996804086493 -79.86728262780 0.9996804086493 -79.86728262780 0.0251451039686 21.869283100090
8.689400000000001 0.0251432629744 -1.594761610745 0.9996804288295 -79.86825807974 0.9996804288295 -79.86825807974 0.0251442834754 21.868948571067
8.689500000000001 0.0251424406787 -1.596377331218 0.9996804490492 -79.86923362645 0.9996804490492 -79.86923362645 0.0251434613651 21.868614800556
8.689600000000000 0.0251416167591 -1.597993997960 0.9996804693083 -79.87020926827 0.9996804693083 -79.87020926827 0.0251426376315 21.868281791761
8.689700000000000 0.0251407912145 -1.599611612789 0.9996804896074 -79.87118500530 0.9996804896074 -79.87118500530 0.0251418122733 21.867949544581
8.689800000000000 0.0251399640375 -1.601230179177 0.9996805099462 -79.87216083796 0.9996805099462 -79.87216083796 0.0251409852831 21.867618063319
8.689900000000000 0.0251391352253 -1.602849699022 0.9996805303249 -79.87313676640 0.9996805303249 -79.87313676640 0.0251401566583 21.867287349170
8.690000000000001 0.0251383047736 -1.604470175073 0.9996805507435 -79.87411279090 0.9996805507435 -79.87411279090 0.0251393263944 21.866957404341
8.690100000000001 0.0251374726774 -1.606091610110 0.9996805712022 -79.87508891173 0.9996805712022 -79.87508891173 0.0251384944866 21.866628231263
8.690200000000001 0.0251366389323 -1.607714007320 0.9996805917013 -79.87606512917 0.9996805917013 -79.87606512917 0.0251376609303 21.866299831813
8.690300000000001 0.0251358035347 -1.609337368292 0.9996806122405 -79.87704144343 0.9996806122405 -79.87704144343 0.0251368257220 21.865972208396
8.690400000000000 0.0251349664801 -1.610961696261 0.9996806328202 -79.87801785475 0.9996806328202 -79.87801785475 0.0251359888572 21.865645362626
8.690500000000000 0.0251341277655 -1.612586993067 0.9996806534404 -79.87899436333 0.9996806534404 -79.87899436333 0.0251351503329 21.865319296217
8.690600000000000 0.0251332873844 -1.614213262226 0.9996806741012 -79.87997096955 0.9996806741012 -79.87997096955 0.0251343101426 21.864994012570
8.690700000000001 0.0251324453327 -1.615840506494 0.9996806948026 -79.88094767365 0.9996806948026 -79.88094767365 0.0251334682821 21.864669513591
8.690800000000001 0.0251316016050 -1.617468729462 0.9996807155452 -79.88192447594 0.9996807155452 -79.88192447594 0.0251326247461 21.864345801399
8.690900000000001 0.0251307562009 -1.619097930772 0.9996807363283 -79.88290137645 0.9996807363283 -79.88290137645 0.0251317795342 21.864022877260
8.691000000000001 0.0251299091131 -1.620728115440 0.9996807571527 -79.88387837561 0.9996807571527 -79.88387837561 0.0251309326391 21.863700743938
8.691100000000000 0.0251290603365 -1.622359286237 0.9996807780182 -79.88485547372 0.9996807780182 -79.88485547372 0.0251300840557 21.863379404224
8.691200000000000 0.0251282098681 -1.623991444981 0.9996807989248 -79.88583267095 0.9996807989248 -79.88583267096 0.0251292337811 21.863058859755
8.691300000000000 0.0251273577026 -1.625624595009 0.9996808198728 -79.88680996763 0.9996808198728 -79.88680996763 0.0251283818098 21.862739113009
8.691400000000000 0.0251265038355 -1.627258738820 0.9996808408622 -79.88778736400 0.9996808408622 -79.88778736400 0.0251275281374 21.862420166399
8.691500000000001 0.0251256482641 -1.628893878798 0.9996808618933 -79.88876486023 0.9996808618933 -79.88876486023 0.0251266727612 21.862102020815
8.691600000000001 0.0251247909796 -1.630530019286 0.9996808829660 -79.88974245684 0.9996808829660 -79.88974245684 0.0251258156725 21.861784681067
8.691700000000001 0.0251239319820 -1.632167160957 0.9996809040804 -79.89072015384 0.9996809040804 -79.89072015384 0.0251249568711 21.861468147114
8.691800000000001 0.0251230712649 -1.633805307689 0.9996809252367 -79.89169795159 0.9996809252367 -79.89169795159 0.0251240963507 21.861152421840
8.691900000000000 0.0251222088230 -1.635444462411 0.9996809464350 -79.89267585040 0.9996809464350 -79.89267585040 0.0251232341061 21.860837508127
8.692000000000000 0.0251213446525 -1.637084627496 0.9996809676753 -79.89365385051 0.9996809676753 -79.89365385051 0.0251223701333 21.860523407954
8.692100000000000 0.0251204787493 -1.638725805757 0.9996809889578 -79.89463195215 0.9996809889578 -79.89463195215 0.0251215044284 21.860210122983
8.692200000000000 0.0251196111081 -1.640368000307 0.9996810102827 -79.89561015564 0.9996810102827 -79.89561015564 0.0251206369859 21.859897656107
8.692300000000001 0.0251187417225 -1.642011214814 0.9996810316500 -79.89658846134 0.9996810316500 -79.89658846134 0.0251197677996 21.859586010320
8.692400000000001 0.0251178705918 -1.643655450215 0.9996810530599 -79.89756686931 0.9996810530599 -79.89756686931 0.0251188968687 21.859275186051
8.692500000000001 0.0251169977081 -1.645300710620 0.9996810745123 -79.89854538000 0.9996810745123 -79.89854538000 0.0251180241854 21.858965187411
8.692600000000001 0.0251161230679 -1.646946998623 0.9996810960075 -79.89952399363 0.9996810960075 -79.89952399363 0.0251171497461 21.858656015959
8.692700000000000 0.0251152466672 -1.648594316701 0.9996811175455 -79.90050271043 0.9996811175455 -79.90050271043 0.0251162735466 21.858347673814
8.692800000000000 0.0251143684990 -1.650242668768 0.9996811391265 -79.90148153080 0.9996811391265 -79.90148153080 0.0251153955804 21.858040164277
8.692900000000000 0.0251134885596 -1.651892057375 0.9996811607505 -79.90246045498 0.9996811607505 -79.90246045498 0.0251145158434 21.857733489323
8.693000000000001 0.0251126068461 -1.653542484507 0.9996811824178 -79.90343948313 0.9996811824178 -79.90343948313 0.0251136343328 21.857427650229
8.693100000000001 0.0251117233516 -1.655193954052 0.9996812041284 -79.90441861565 0.9996812041284 -79.90441861565 0.0251127510418 21.857122650555
8.693200000000001 0.0251108380711 -1.656846469093 0.9996812258824 -79.90539785284 0.9996812258824 -79.90539785284 0.0251118659653 21.856818492663
8.693300000000001 0.0251099510021 -1.658500031159 0.9996812476798 -79.90637719484 0.9996812476798 -79.90637719484 0.0251109791008 21.856515178165
8.693400000000000 0.0251090621367 -1.660154645228 0.9996812695210 -79.90735664213 0.9996812695210 -79.90735664213 0.0251100904405 21.856212710401
8.693500000000000 0.0251081714715 -1.661810313002 0.9996812914058 -79.90833619490 0.9996812914058 -79.90833619490 0.0251091999810 21.855911091697
8.693600000000000 0.0251072790018 -1.663467037895 0.9996813133346 -79.90931585343 0.9996813133346 -79.90931585343 0.0251083077174 21.855610323861
8.693700000000000 0.0251063847235 -1.665124822006 0.9996813353072 -79.91029561796 0.9996813353072 -79.91029561796 0.0251074136458 21.855310409393
8.693800000000001 0.0251054886302 -1.666783669662 0.9996813573241 -79.91127548887 0.9996813573241 -79.91127548887 0.0251065177596 21.855011350992
8.693900000000001 0.0251045907169 -1.668443583334 0.9996813793851 -79.91225546644 0.9996813793851 -79.91225546644 0.0251056200542 21.854713151505
8.694000000000001 0.0251036909796 -1.670104565880 0.9996814014904 -79.91323555092 0.9996814014904 -79.91323555092 0.0251047205252 21.854415812815
8.694100000000001 0.0251027894119 -1.671766621144 0.9996814236402 -79.91421574268 0.9996814236402 -79.91421574268 0.0251038191664 21.854119337966
8.694200000000000 0.0251018860121 -1.673429750317 0.9996814458345 -79.91519604183 0.9996814458345 -79.91519604183 0.0251029159759 21.853823728129
8.694300000000000 0.0251009807711 -1.675093958712 0.9996814680736 -79.91617644890 0.9996814680736 -79.91617644890 0.0251020109449 21.853528987447
8.694400000000000 0.0251000736862 -1.676759247679 0.9996814903573 -79.91715696404 0.9996814903573 -79.91715696404 0.0251011040706 21.853235117886
8.694500000000000 0.0250991647520 -1.678425621550 0.9996815126861 -79.91813758758 0.9996815126861 -79.91813758758 0.0251001953474 21.852942121252
8.694600000000001 0.0250982539636 -1.680093082510 0.9996815350598 -79.91911831980 0.9996815350598 -79.91911831980 0.0250992847705 21.852650000619
8.694700000000001 0.0250973413151 -1.681761634279 0.9996815574787 -79.92009916106 0.9996815574787 -79.92009916106 0.0250983723342 21.852358758787
8.694800000000001 0.0250964268032 -1.683431278953 0.9996815799428 -79.92108011153 0.9996815799428 -79.92108011153 0.0250974580351 21.852068397456
8.694900000000001 0.0250955104200 -1.685102021287 0.9996816024523 -79.92206117170 0.9996816024523 -79.92206117170 0.0250965418652 21.851778920514
8.695000000000000 0.0250945921621 -1.686773863612 0.9996816250074 -79.92304234176 0.9996816250074 -79.92304234176 0.0250956238212 21.851490329452
8.695100000000000 0.0250936720241 -1.688446809166 0.9996816476081 -79.92402362202 0.9996816476081 -79.92402362202 0.0250947038976 21.851202627089
8.695200000000000 0.0250927500024 -1.690120859988 0.9996816702544 -79.92500501271 0.9996816702544 -79.92500501271 0.0250937820909 21.850915815585
8.695300000000001 0.0250918260883 -1.691796021528 0.9996816929468 -79.92598651433 0.9996816929468 -79.92598651433 0.0250928583923 21.850629898713
8.695400000000001 0.0250909002800 -1.693472294900 0.9996817156850 -79.92696812699 0.9996817156850 -79.92696812699 0.0250919328002 21.850344877778
8.695500000000001 0.0250899725683 -1.695149685201 0.9996817384693 -79.92794985123 0.9996817384693 -79.92794985123 0.0250910053052 21.850060757459
8.695600000000001 0.0250890429530 -1.696828193507 0.9996817612998 -79.92893168705 0.9996817612998 -79.92893168705 0.0250900759073 21.849777537373
8.695700000000000 0.0250881114251 -1.698507825223 0.9996817841769 -79.92991363500 0.9996817841769 -79.92991363500 0.0250891445972 21.849495221950
8.695800000000000 0.0250871779814 -1.700188581614 0.9996818071003 -79.93089569526 0.9996818071003 -79.93089569526 0.0250882113719 21.849213813578
8.695900000000000 0.0250862426147 -1.701870467352 0.9996818300703 -79.93187786825 0.9996818300703 -79.93187786825 0.0250872762243 21.848933315318
8.696000000000000 0.0250853053205 -1.703553485587 0.9996818530871 -79.93286015424 0.9996818530871 -79.93286015424 0.0250863391496 21.848653729287
8.696100000000001 0.0250843660942 -1.705237638934 0.9996818761508 -79.93384255351 0.9996818761508 -79.93384255351 0.0250854001434 21.848375058059
8.696200000000001 0.0250834249285 -1.706922931286 0.9996818992613 -79.93482506646 0.9996818992613 -79.93482506646 0.0250844591986 21.848097305466
8.696300000000001 0.0250824818202 -1.708609365632 0.9996819224190 -79.93580769330 0.9996819224190 -79.93580769330 0.0250835163116 21.847820472480
8.696400000000001 0.0250815367625 -1.710296945161 0.9996819456238 -79.93679043444 0.9996819456238 -79.93679043444 0.0250825714759 21.847544563345
8.696500000000000 0.0250805897521 -1.711985673143 0.9996819688762 -79.93777329005 0.9996819688762 -79.93777329005 0.0250816246880 21.847269578692
8.696600000000000 0.0250796407799 -1.713675553958 0.9996819921760 -79.93875626068 0.9996819921760 -79.93875626068 0.0250806759389 21.846995523898
8.696700000000000 0.0250786898420 -1.715366590125 0.9996820155233 -79.93973934656 0.9996820155233 -79.93973934656 0.0250797252249 21.846722400807
8.696800000000001 0.0250777369351 -1.717058784748 0.9996820389185 -79.94072254788 0.9996820389185 -79.94072254788 0.0250787725423 21.846450210484
8.696900000000001 0.0250767820510 -1.718752141852 0.9996820623615 -79.94170586512 0.9996820623615 -79.94170586512 0.0250778178831 21.846178957652
8.697000000000001 0.0250758251849 -1.720446664236 0.9996820858523 -79.94268929857 0.9996820858523 -79.94268929857 0.0250768612426 21.845908644787
8.697100000000001 0.0250748663315 -1.722142356249 0.9996821093916 -79.94367284853 0.9996821093916 -79.94367284853 0.0250759026153 21.845639273773
8.697200000000000 0.0250739054845 -1.723839220524 0.9996821329788 -79.94465651539 0.9996821329788 -79.94465651539 0.0250749419951 21.845370848690
8.697300000000000 0.0250729426396 -1.725537260453 0.9996821566145 -79.94564029939 0.9996821566145 -79.94564029939 0.0250739793776 21.845103371252
8.697400000000000 0.0250719777896 -1.727236480464 0.9996821802989 -79.94662420095 0.9996821802989 -79.94662420095 0.0250730147556 21.844836844795
8.697500000000000 0.0250710109302 -1.728936883237 0.9996822040319 -79.94760822034 0.9996822040319 -79.94760822034 0.0250720481247 21.844571271605
8.697600000000001 0.0250700420558 -1.730638471415 0.9996822278134 -79.94859235787 0.9996822278134 -79.94859235787 0.0250710794796 21.844306655361
8.697700000000001 0.0250690711591 -1.732341250399 0.9996822516440 -79.94957661398 0.9996822516440 -79.94957661398 0.0250701088127 21.844042998515
8.697800000000001 0.0250680982361 -1.734045222489 0.9996822755237 -79.95056098891 0.9996822755237 -79.95056098891 0.0250691361201 21.843780303607
8.697900000000001 0.0250671232809 -1.735750390792 0.9996822994524 -79.95154548299 0.9996822994524 -79.95154548299 0.0250681613960 21.843518573855
8.698000000000000 0.0250661462863 -1.737456760539 0.9996823234307 -79.95253009666 0.9996823234307 -79.95253009666 0.0250671846331 21.843257812165
8.698100000000000 0.0250651672466 -1.739164334575 0.9996823474583 -79.95351483025 0.9996823474583 -79.95351483025 0.0250662058257 21.842998021882
8.698200000000000 0.0250641861566 -1.740873116198 0.9996823715354 -79.95449968407 0.9996823715354 -79.95449968407 0.0250652249687 21.842739205619
8.698300000000000 0.0250632030112 -1.742583109158 0.9996823956625 -79.95548465842 0.9996823956625 -79.95548465842 0.0250642420568 21.842481365601
8.698400000000001 0.0250622178044 -1.744294315998 0.9996824198390 -79.95646975364 0.9996824198390 -79.95646975364 0.0250632570843 21.842224505712
8.698500000000001 0.0250612305313 -1.746006740898 0.9996824440657 -79.95745497004 0.9996824440657 -79.95745497004 0.0250622700461 21.841968627485
8.698600000000001 0.0250602411835 -1.747720388760 0.9996824683427 -79.95844030810 0.9996824683427 -79.95844030810 0.0250612809338 21.841713735149
8.698700000000001 0.0250592497558 -1.749435262332 0.9996824926699 -79.95942576812 0.9996824926699 -79.95942576812 0.0250602897422 21.841459831847
8.698800000000000 0.0250582562425 -1.751151365034 0.9996825170473 -79.96041135046 0.9996825170473 -79.96041135046 0.0250592964657 21.841206920502
8.698900000000000 0.0250572606390 -1.752868700628 0.9996825414754 -79.96139705536 0.9996825414754 -79.96139705536 0.0250583010996 21.840955002695
8.699000000000000 0.0250562629373 -1.754587273072 0.9996825659541 -79.96238288332 0.9996825659541 -79.96238288332 0.0250573036360 21.840704083217
8.699100000000001 0.0250552631328 -1.756307085957 0.9996825904838 -79.96336883459 0.9996825904838 -79.96336883459 0.0250563040702 21.840454163726
8.699200000000001 0.0250542612180 -1.758028143247 0.9996826150643 -79.96435490962 0.9996826150643 -79.96435490962 0.0250553023948 21.840205248618
8.699300000000001 0.0250532571880 -1.759750448332 0.9996826396959 -79.96534110870 0.9996826396959 -79.96534110870 0.0250542986049 21.839957339936
8.699400000000001 0.0250522510383 -1.761474004040 0.9996826643787 -79.96632743209 0.9996826643787 -79.96632743209 0.0250532926958 21.839710440242
8.699500000000000 0.0250512427584 -1.763198816811 0.9996826891131 -79.96731388041 0.9996826891131 -79.96731388041 0.0250522846572 21.839464554284
8.699600000000000 0.0250502323460 -1.764924887850 0.9996827138988 -79.96830045379 0.9996827138988 -79.96830045379 0.0250512744869 21.839219683723
8.699700000000000 0.0250492197926 -1.766652222682 0.9996827387364 -79.96928715275 0.9996827387364 -79.96928715275 0.0250502621761 21.838975832633
8.699800000000000 0.0250482050951 -1.768380822777 0.9996827636255 -79.97027397745 0.9996827636255 -79.97027397745 0.0250492477220 21.838733003074
8.699900000000001 0.0250471882425 -1.770110695379 0.9996827885668 -79.97126092855 0.9996827885668 -79.97126092855 0.0250482311134 21.838491199722
8.700000000000001 0.0250461692350 -1.771841840426 0.9996828135601 -79.97224800603 0.9996828135601 -79.97224800603 0.0250472123505 21.838250423097