! Sonnet Data File
! From: emgraph Version : 16.52
! From Project: 171117_Xmon_fullysym
! Data is De-embedded 
! Data File Written: 11/26/2017 17:14:22
!< HDATE 11/22/2017 16:48:52
!< MDATE 11/23/2017 10:16:42
!< PARAMS
!< Lj = 11.0
!< Gap = 1.0
!< Pwid = 2000.0
!< Airgap = 6.0
!< Width = 10.0
!< Lj1 = 10.05
!< END PARAMS
# GHZ S MA R 50.90000
8.680000000000000 0.0252251899612 -1.441527223007 0.9996784066428 -79.77628936212 0.9996784066413 -79.77628936200 0.0252261945114 21.899516043150
!< P1 F=8.68 Eeff=(6.44843488 -2.9797e-5) Z0=(50.9086135 1.17022e-4) R=0.0 C=0.0 
!< P2 F=8.68 Eeff=(6.44843488 -2.9797e-5) Z0=(50.9086135 1.17022e-4) R=0.0 C=0.0 
8.680100000000001 0.0252245047213 -1.443063456281 0.9996784235081 -79.77725688476 0.9996784235081 -79.77725688476 0.0252255094172 21.899118409115
8.680200000000001 0.0252238181954 -1.444600425186 0.9996784404045 -79.77822448273 0.9996784404045 -79.77822448273 0.0252248230390 21.898721370551
8.680300000000001 0.0252231303769 -1.446138138771 0.9996784573327 -79.77919215633 0.9996784573327 -79.77919215633 0.0252241353685 21.898324930282
8.680400000000001 0.0252224412622 -1.447676600000 0.9996784742929 -79.78015990577 0.9996784742929 -79.78015990577 0.0252234464022 21.897929089182
8.680500000000000 0.0252217508476 -1.449215810619 0.9996784912852 -79.78112773127 0.9996784912852 -79.78112773127 0.0252227561363 21.897533849473
8.680600000000000 0.0252210591300 -1.450755772272 0.9996785083094 -79.78209563301 0.9996785083094 -79.78209563301 0.0252220645679 21.897139212855
8.680700000000000 0.0252203661072 -1.452296486975 0.9996785253660 -79.78306361112 0.9996785253660 -79.78306361112 0.0252213716946 21.896745179812
8.680800000000001 0.0252196717753 -1.453837956452 0.9996785424547 -79.78403166584 0.9996785424547 -79.78403166584 0.0252206775125 21.896351752861
8.680900000000001 0.0252189761315 -1.455380182562 0.9996785595757 -79.78499979732 0.9996785595757 -79.78499979732 0.0252199820190 21.895958933132
8.681000000000001 0.0252182791733 -1.456923166787 0.9996785767290 -79.78596800572 0.9996785767290 -79.78596800572 0.0252192852114 21.895566721980
8.681100000000001 0.0252175808976 -1.458466911235 0.9996785939149 -79.78693629121 0.9996785939149 -79.78693629121 0.0252185870866 21.895175120657
8.681200000000000 0.0252168812989 -1.460011418973 0.9996786111333 -79.78790465413 0.9996786111333 -79.78790465413 0.0252178876392 21.894784131938
8.681300000000000 0.0252161803764 -1.461556690447 0.9996786283842 -79.78887309451 0.9996786283842 -79.78887309451 0.0252171868685 21.894393756244
8.681400000000000 0.0252154781259 -1.463102728630 0.9996786456680 -79.78984161260 0.9996786456680 -79.78984161260 0.0252164847699 21.894003995371
8.681500000000000 0.0252147745430 -1.464649535382 0.9996786629845 -79.79081020867 0.9996786629845 -79.79081020867 0.0252157813396 21.893614851822
8.681600000000001 0.0252140696276 -1.466197111292 0.9996786803337 -79.79177888271 0.9996786803337 -79.79177888271 0.0252150765770 21.893226325710
8.681700000000001 0.0252133633732 -1.467745460348 0.9996786977160 -79.79274763512 0.9996786977160 -79.79274763512 0.0252143704757 21.892838419663
8.681800000000001 0.0252126557796 -1.469294582522 0.9996787151313 -79.79371646590 0.9996787151313 -79.79371646590 0.0252136630357 21.892451134273
8.681900000000001 0.0252119468402 -1.470844481368 0.9996787325795 -79.79468537543 0.9996787325795 -79.79468537543 0.0252129542503 21.892064472674
8.682000000000000 0.0252112365534 -1.472395158747 0.9996787500611 -79.79565436383 0.9996787500611 -79.79565436383 0.0252122441178 21.891678435165
8.682100000000000 0.0252105249164 -1.473946615187 0.9996787675756 -79.79662343124 0.9996787675756 -79.79662343124 0.0252115326356 21.891293024170
8.682200000000000 0.0252098119257 -1.475498853822 0.9996787851236 -79.79759257789 0.9996787851236 -79.79759257789 0.0252108197999 21.890908240447
8.682300000000000 0.0252090975774 -1.477051876656 0.9996788027050 -79.79856180398 0.9996788027050 -79.79856180398 0.0252101056071 21.890524086115
8.682400000000001 0.0252083818685 -1.478605685307 0.9996788203198 -79.79953110971 0.9996788203198 -79.79953110971 0.0252093900541 21.890140562755
8.682500000000001 0.0252076647954 -1.480160282130 0.9996788379681 -79.80050049528 0.9996788379681 -79.80050049528 0.0252086731372 21.889757672066
8.682600000000001 0.0252069463551 -1.481715668715 0.9996788556500 -79.80146996087 0.9996788556500 -79.80146996087 0.0252079548536 21.889375415664
8.682700000000001 0.0252062265447 -1.483271847255 0.9996788733657 -79.80243950665 0.9996788733657 -79.80243950665 0.0252072352002 21.888993794632
8.682800000000000 0.0252055053589 -1.484828820577 0.9996788911152 -79.80340913294 0.9996788911152 -79.80340913294 0.0252065141718 21.888612811771
8.682900000000000 0.0252047827980 -1.486386588595 0.9996789088985 -79.80437883971 0.9996789088985 -79.80437883971 0.0252057917687 21.888232467044
8.683000000000000 0.0252040588544 -1.487945156059 0.9996789267158 -79.80534862741 0.9996789267158 -79.80534862741 0.0252050679832 21.887852763743
8.683100000000001 0.0252033335268 -1.489504523239 0.9996789445670 -79.80631849612 0.9996789445670 -79.80631849612 0.0252043428142 21.887473703006
8.683200000000001 0.0252026068123 -1.491064692432 0.9996789624524 -79.80728844601 0.9996789624524 -79.80728844601 0.0252036162587 21.887095286016
8.683300000000001 0.0252018787057 -1.492625666503 0.9996789803720 -79.80825847738 0.9996789803720 -79.80825847738 0.0252028883115 21.886717515139
8.683400000000001 0.0252011492044 -1.494187447074 0.9996789983258 -79.80922859040 0.9996789983258 -79.80922859040 0.0252021589699 21.886340391917
8.683500000000000 0.0252004183052 -1.495750036114 0.9996790163141 -79.81019878523 0.9996790163140 -79.81019878523 0.0252014282308 21.885963917690
8.683600000000000 0.0251996860068 -1.497313434305 0.9996790343366 -79.81116906197 0.9996790343366 -79.81116906197 0.0252006960930 21.885588093547
8.683700000000000 0.0251989523004 -1.498877647026 0.9996790523937 -79.81213942113 0.9996790523937 -79.81213942113 0.0251999625475 21.885212923143
8.683800000000000 0.0251982171876 -1.500442673444 0.9996790704854 -79.81310986262 0.9996790704854 -79.81310986262 0.0251992275961 21.884838406031
8.683900000000001 0.0251974806620 -1.502008516856 0.9996790886117 -79.81408038681 0.9996790886117 -79.81408038681 0.0251984912323 21.884464545621
8.684000000000001 0.0251967427227 -1.503575178531 0.9996791067728 -79.81505099376 0.9996791067728 -79.81505099376 0.0251977534551 21.884091341991
8.684100000000001 0.0251960033624 -1.505142662727 0.9996791249688 -79.81602168389 0.9996791249688 -79.81602168389 0.0251970142573 21.883718798355
8.684200000000001 0.0251952625817 -1.506710968587 0.9996791431996 -79.81699245718 0.9996791431996 -79.81699245718 0.0251962736396 21.883346915312
8.684300000000000 0.0251945203732 -1.508280100978 0.9996791614655 -79.81796331404 0.9996791614655 -79.81796331404 0.0251955315945 21.882975695713
8.684400000000000 0.0251937767366 -1.509850060201 0.9996791797665 -79.81893425451 0.9996791797665 -79.81893425451 0.0251947881216 21.882605140087
8.684500000000000 0.0251930316659 -1.511420849309 0.9996791981026 -79.81990527894 0.9996791981026 -79.81990527894 0.0251940432151 21.882235251375
8.684600000000000 0.0251922851588 -1.512992470250 0.9996792164739 -79.82087638746 0.9996792164739 -79.82087638746 0.0251932968726 21.881866030541
8.684700000000001 0.0251915372118 -1.514564924921 0.9996792348806 -79.82184758027 0.9996792348806 -79.82184758027 0.0251925490906 21.881497479371
8.684800000000001 0.0251907878202 -1.516138216375 0.9996792533228 -79.82281885766 0.9996792533228 -79.82281885766 0.0251917998644 21.881129599963
8.684900000000001 0.0251900369817 -1.517712345683 0.9996792718005 -79.82379021976 0.9996792718005 -79.82379021976 0.0251910491917 21.880762393760
8.685000000000000 0.0251892846918 -1.519287315783 0.9996792903138 -79.82476166683 0.9996792903138 -79.82476166683 0.0251902970680 21.880395862723
8.685100000000000 0.0251885309473 -1.520863128330 0.9996793088627 -79.82573319907 0.9996793088627 -79.82573319907 0.0251895434902 21.880030008698
8.685200000000000 0.0251877757440 -1.522439785977 0.9996793274474 -79.82670481671 0.9996793274474 -79.82670481671 0.0251887884539 21.879664833668
8.685300000000000 0.0251870190807 -1.524017289926 0.9996793460679 -79.82767651984 0.9996793460679 -79.82767651984 0.0251880319581 21.879300337919
8.685400000000001 0.0251862609488 -1.525595644682 0.9996793647245 -79.82864830895 0.9996793647245 -79.82864830895 0.0251872739941 21.878936525804
8.685500000000001 0.0251855013484 -1.527174850658 0.9996793834171 -79.82962018404 0.9996793834171 -79.82962018404 0.0251865145620 21.878573397240
8.685600000000001 0.0251847402756 -1.528754909537 0.9996794021456 -79.83059214534 0.9996794021456 -79.83059214534 0.0251857536580 21.878210954774
8.685700000000001 0.0251839777257 -1.530335825009 0.9996794209105 -79.83156419313 0.9996794209105 -79.83156419313 0.0251849912772 21.877849199857
8.685800000000000 0.0251832136954 -1.531917598846 0.9996794397117 -79.83253632760 0.9996794397117 -79.83253632760 0.0251842274164 21.877488134278
8.685900000000000 0.0251824481799 -1.533500233499 0.9996794585492 -79.83350854902 0.9996794585492 -79.83350854902 0.0251834620710 21.877127760618
8.686000000000000 0.0251816811772 -1.535083730645 0.9996794774232 -79.83448085753 0.9996794774232 -79.83448085753 0.0251826952388 21.876768079795
8.686100000000000 0.0251809126824 -1.536668093053 0.9996794963337 -79.83545325341 0.9996794963337 -79.83545325341 0.0251819269148 21.876409094197
8.686200000000001 0.0251801426919 -1.538253322995 0.9996795152809 -79.83642573688 0.9996795152809 -79.83642573688 0.0251811570955 21.876050805530
8.686300000000001 0.0251793712012 -1.539839423041 0.9996795342649 -79.83739830818 0.9996795342649 -79.83739830818 0.0251803857766 21.875693215980
8.686400000000001 0.0251785982093 -1.541426394055 0.9996795532857 -79.83837096739 0.9996795532857 -79.83837096739 0.0251796129568 21.875336326183
8.686500000000001 0.0251778237074 -1.543014240609 0.9996795723433 -79.83934371502 0.9996795723433 -79.83934371502 0.0251788386276 21.874980140536
8.686600000000000 0.0251770476968 -1.544602963116 0.9996795914380 -79.84031655100 0.9996795914380 -79.84031655100 0.0251780627899 21.874624657980
8.686700000000000 0.0251762701714 -1.546192564453 0.9996796105697 -79.84128947568 0.9996796105697 -79.84128947568 0.0251772854379 21.874269881944
8.686800000000000 0.0251754911259 -1.547783047609 0.9996796297386 -79.84226248937 0.9996796297386 -79.84226248937 0.0251765065664 21.873915815002
8.686900000000001 0.0251747105593 -1.549374414311 0.9996796489449 -79.84323559215 0.9996796489449 -79.84323559215 0.0251757261741 21.873562457059
8.687000000000001 0.0251739284665 -1.550966666519 0.9996796681885 -79.84420878430 0.9996796681885 -79.84420878430 0.0251749442561 21.873209811377
8.687100000000001 0.0251731448425 -1.552559807885 0.9996796874696 -79.84518206611 0.9996796874696 -79.84518206611 0.0251741608073 21.872857879829
8.687200000000001 0.0251723596846 -1.554153839539 0.9996797067882 -79.84615543776 0.9996797067882 -79.84615543776 0.0251733758250 21.872506664333
8.687300000000000 0.0251715729891 -1.555748764158 0.9996797261444 -79.84712889945 0.9996797261444 -79.84712889945 0.0251725893056 21.872156166249
8.687400000000000 0.0251707847508 -1.557344584874 0.9996797455385 -79.84810245150 0.9996797455385 -79.84810245150 0.0251718012437 21.871806388182
8.687500000000000 0.0251699949675 -1.558941302474 0.9996797649702 -79.84907609402 0.9996797649702 -79.84907609402 0.0251710116375 21.871457331614
8.687600000000000 0.0251692036341 -1.560538921105 0.9996797844400 -79.85004982733 0.9996797844400 -79.85004982733 0.0251702204815 21.871108998169
8.687700000000001 0.0251684107461 -1.562137442545 0.9996798039478 -79.85102365168 0.9996798039478 -79.85102365168 0.0251694277713 21.870761390936
8.687800000000001 0.0251676163003 -1.563736868810 0.9996798234936 -79.85199756727 0.9996798234936 -79.85199756727 0.0251686335039 21.870414511310
8.687900000000001 0.0251668202928 -1.565337202925 0.9996798430778 -79.85297157432 0.9996798430778 -79.85297157432 0.0251678376751 21.870068360683
8.688000000000001 0.0251660227203 -1.566938446334 0.9996798627002 -79.85394567303 0.9996798627002 -79.85394567303 0.0251670402819 21.869722941261
8.688100000000000 0.0251652235764 -1.568540602887 0.9996798823610 -79.85491986377 0.9996798823610 -79.85491986377 0.0251662413177 21.869378256026
8.688200000000000 0.0251644228586 -1.570143674277 0.9996799020602 -79.85589414670 0.9996799020602 -79.85589414670 0.0251654407800 21.869034306199
8.688300000000000 0.0251636205621 -1.571747663509 0.9996799217981 -79.85686852210 0.9996799217981 -79.85686852210 0.0251646386640 21.868691093973
8.688400000000000 0.0251628166846 -1.573352571828 0.9996799415747 -79.85784299009 0.9996799415747 -79.85784299009 0.0251638349676 21.868348620713
8.688500000000001 0.0251620112206 -1.574958402616 0.9996799613900 -79.85881755100 0.9996799613900 -79.85881755100 0.0251630296850 21.868006889030
8.688600000000001 0.0251612041665 -1.576565157713 0.9996799812441 -79.85979220505 0.9996799812441 -79.85979220505 0.0251622228130 21.867665901016
8.688700000000001 0.0251603955162 -1.578172841350 0.9996800011373 -79.86076695259 0.9996800011373 -79.86076695259 0.0251614143451 21.867325658997
8.688800000000001 0.0251595852689 -1.579781453852 0.9996800210695 -79.86174179368 0.9996800210695 -79.86174179368 0.0251606042807 21.866986163841
8.688900000000000 0.0251587734172 -1.581390999582 0.9996800410409 -79.86271672874 0.9996800410409 -79.86271672874 0.0251597926124 21.866647419046
8.689000000000000 0.0251579599601 -1.583001479590 0.9996800610516 -79.86369175784 0.9996800610516 -79.86369175784 0.0251589793391 21.866309424935
8.689100000000000 0.0251571448906 -1.584612897375 0.9996800811016 -79.86466688138 0.9996800811016 -79.86466688138 0.0251581644539 21.865972185409
8.689200000000001 0.0251563282063 -1.586225255014 0.9996801011911 -79.86564209952 0.9996801011911 -79.86564209952 0.0251573479543 21.865635701356
8.689300000000001 0.0251555099027 -1.587838554757 0.9996801213201 -79.86661741250 0.9996801213201 -79.86661741250 0.0251565298360 21.865299975143
8.689400000000001 0.0251546899745 -1.589452800310 0.9996801414889 -79.86759282066 0.9996801414889 -79.86759282066 0.0251557100934 21.864965009084
8.689500000000001 0.0251538684190 -1.591067992973 0.9996801616973 -79.86856832413 0.9996801616973 -79.86856832413 0.0251548887242 21.864630804768
8.689600000000000 0.0251530452302 -1.592684136224 0.9996801819456 -79.86954392329 0.9996801819456 -79.86954392329 0.0251540657220 21.864297365399
8.689700000000000 0.0251522204066 -1.594301231915 0.9996802022340 -79.87051961821 0.9996802022340 -79.87051961821 0.0251532410855 21.863964690891
8.689800000000000 0.0251513939408 -1.595919283506 0.9996802225623 -79.87149540933 0.9996802225623 -79.87149540933 0.0251524148073 21.863632785552
8.689900000000000 0.0251505658302 -1.597538292938 0.9996802429309 -79.87247129680 0.9996802429309 -79.87247129680 0.0251515868848 21.863301650606
8.690000000000001 0.0251497360702 -1.599158262987 0.9996802633396 -79.87344728090 0.9996802633396 -79.87344728090 0.0251507573134 21.862971288279
8.690100000000001 0.0251489046561 -1.600779196405 0.9996802837887 -79.87442336190 0.9996802837887 -79.87442336190 0.0251499260883 21.862641700984
8.690200000000001 0.0251480715831 -1.602401096439 0.9996803042784 -79.87539954009 0.9996803042784 -79.87539954009 0.0251490932049 21.862312890636
8.690300000000001 0.0251472368477 -1.604023964677 0.9996803248085 -79.87637581566 0.9996803248085 -79.87637581566 0.0251482586595 21.861984859651
8.690400000000000 0.0251464004454 -1.605647804382 0.9996803453793 -79.87735218889 0.9996803453793 -79.87735218889 0.0251474224478 21.861657609653
8.690500000000000 0.0251455623732 -1.607272617391 0.9996803659909 -79.87832865995 0.9996803659909 -79.87832865995 0.0251465845665 21.861331142356
8.690600000000000 0.0251447226244 -1.608898407258 0.9996803866434 -79.87930522923 0.9996803866434 -79.87930522923 0.0251457450093 21.861005461196
8.690700000000001 0.0251438811950 -1.610525176757 0.9996804073368 -79.88028189698 0.9996804073368 -79.88028189698 0.0251449037718 21.860680568091
8.690800000000001 0.0251430380795 -1.612152929487 0.9996804280715 -79.88125866351 0.9996804280715 -79.88125866351 0.0251440608488 21.860356465159
8.690900000000001 0.0251421932775 -1.613781665109 0.9996804488472 -79.88223552885 0.9996804488472 -79.88223552885 0.0251432162398 21.860033153689
8.691000000000001 0.0251413467817 -1.615411388656 0.9996804696642 -79.88321249343 0.9996804696642 -79.88321249343 0.0251423699375 21.859710636451
8.691100000000000 0.0251404985869 -1.617042102920 0.9996804905227 -79.88418955755 0.9996804905227 -79.88418955755 0.0251415219366 21.859388916259
8.691200000000000 0.0251396486901 -1.618673809737 0.9996805114227 -79.88516672139 0.9996805114227 -79.88516672139 0.0251406722343 21.859067994761
8.691300000000000 0.0251387970859 -1.620306512463 0.9996805323642 -79.88614398526 0.9996805323642 -79.88614398526 0.0251398208251 21.858747874448
8.691400000000000 0.0251379437699 -1.621940213614 0.9996805533475 -79.88712134944 0.9996805533475 -79.88712134944 0.0251389677045 21.858428557746
8.691500000000001 0.0251370887392 -1.623574915586 0.9996805743726 -79.88809881409 0.9996805743726 -79.88809881409 0.0251381128697 21.858110045557
8.691600000000001 0.0251362319850 -1.625210622763 0.9996805954397 -79.88907637971 0.9996805954397 -79.88907637971 0.0251372563121 21.857792342719
8.691700000000001 0.0251353735073 -1.626847335795 0.9996806165487 -79.89005404633 0.9996806165487 -79.89005404633 0.0251363980314 21.857475449174
8.691800000000001 0.0251345132996 -1.628485058620 0.9996806377000 -79.89103181430 0.9996806377000 -79.89103181430 0.0251355380212 21.857159367854
8.691900000000000 0.0251336513567 -1.630123794161 0.9996806588934 -79.89200968396 0.9996806588934 -79.89200968396 0.0251346762763 21.856844101635
8.692000000000000 0.0251327876746 -1.631763544822 0.9996806801292 -79.89298765552 0.9996806801292 -79.89298765552 0.0251338127928 21.856529652521
8.692100000000000 0.0251319222493 -1.633404313422 0.9996807014075 -79.89396572923 0.9996807014075 -79.89396572923 0.0251329475665 21.856216022179
8.692200000000000 0.0251310550753 -1.635046103114 0.9996807227284 -79.89494390541 0.9996807227284 -79.89494390541 0.0251320805921 21.855903213529
8.692300000000001 0.0251301861464 -1.636688917566 0.9996807440921 -79.89592218442 0.9996807440921 -79.89592218442 0.0251312118632 21.855591229567
8.692400000000001 0.0251293154616 -1.638332757736 0.9996807654985 -79.89690056632 0.9996807654985 -79.89690056632 0.0251303413790 21.855280070737
8.692500000000001 0.0251284430132 -1.639977627752 0.9996807869478 -79.89787905157 0.9996807869478 -79.89787905157 0.0251294691317 21.854969741165
8.692600000000001 0.0251275687975 -1.641623530231 0.9996808084402 -79.89885764038 0.9996808084402 -79.89885764038 0.0251285951177 21.854660242426
8.692700000000000 0.0251266928103 -1.643270467678 0.9996808299757 -79.89983633300 0.9996808299757 -79.89983633300 0.0251277193327 21.854351576666
8.692800000000000 0.0251258150451 -1.644918444003 0.9996808515544 -79.90081512982 0.9996808515544 -79.90081512982 0.0251268417701 21.854043747179
8.692900000000000 0.0251249354975 -1.646567461809 0.9996808731764 -79.90179403108 0.9996808731764 -79.90179403108 0.0251259624258 21.853736755979
8.693000000000001 0.0251240541650 -1.648217523084 0.9996808948420 -79.90277303695 0.9996808948420 -79.90277303695 0.0251250812971 21.853430604341
8.693100000000001 0.0251231710406 -1.649868631713 0.9996809165512 -79.90375214782 0.9996809165512 -79.90375214782 0.0251241983769 21.853125295831
8.693200000000001 0.0251222861191 -1.651520790840 0.9996809383041 -79.90473136401 0.9996809383041 -79.90473136401 0.0251233136603 21.852820832852
8.693300000000001 0.0251213993982 -1.653174001973 0.9996809601007 -79.90571068566 0.9996809601007 -79.90571068566 0.0251224271447 21.852517217006
8.693400000000000 0.0251205108698 -1.654828270127 0.9996809819413 -79.90669011323 0.9996809819413 -79.90669011323 0.0251215388221 21.852214451654
8.693500000000000 0.0251196205304 -1.656483597040 0.9996810038259 -79.90766964694 0.9996810038259 -79.90766964694 0.0251206486892 21.851912539155
8.693600000000000 0.0251187283753 -1.658139986129 0.9996810257548 -79.90864928706 0.9996810257548 -79.90864928706 0.0251197567411 21.851611481319
8.693700000000000 0.0251178344004 -1.659797439504 0.9996810477277 -79.90962903383 0.9996810477277 -79.90962903383 0.0251188629738 21.851311280654
8.693800000000001 0.0251169385992 -1.661455961531 0.9996810697453 -79.91060888764 0.9996810697453 -79.91060888763 0.0251179673806 21.851011939881
8.693900000000001 0.0251160409669 -1.663115554689 0.9996810918072 -79.91158884876 0.9996810918072 -79.91158884876 0.0251170699569 21.850713461863
8.694000000000001 0.0251151414992 -1.664776221859 0.9996811139138 -79.91256891746 0.9996811139138 -79.91256891746 0.0251161706984 21.850415848496
8.694100000000001 0.0251142401897 -1.666437966915 0.9996811360651 -79.91354909410 0.9996811360651 -79.91354909410 0.0251152695986 21.850119102849
8.694200000000000 0.0251133370367 -1.668100791041 0.9996811582613 -79.91452937879 0.9996811582613 -79.91452937879 0.0251143666558 21.849823226090
8.694300000000000 0.0251124320311 -1.669764699609 0.9996811805025 -79.91550977207 0.9996811805025 -79.91550977207 0.0251134618610 21.849528222401
8.694400000000000 0.0251115251700 -1.671429693949 0.9996812027886 -79.91649027409 0.9996812027886 -79.91649027409 0.0251125552114 21.849234093739
8.694500000000000 0.0251106164481 -1.673095778449 0.9996812251201 -79.91747088519 0.9996812251201 -79.91747088519 0.0251116467013 21.848940841945
8.694600000000001 0.0251097058604 -1.674762955290 0.9996812474969 -79.91845160565 0.9996812474969 -79.91845160565 0.0251107363261 21.848648470093
8.694700000000001 0.0251087934010 -1.676431228220 0.9996812699192 -79.91943243581 0.9996812699192 -79.91943243581 0.0251098240798 21.848356981011
8.694800000000001 0.0251078790666 -1.678100599357 0.9996812923869 -79.92041337587 0.9996812923869 -79.92041337587 0.0251089099590 21.848066376410
8.694900000000001 0.0251069628491 -1.679771073473 0.9996813149004 -79.92139442631 0.9996813149004 -79.92139442631 0.0251079939557 21.847776660194
8.695000000000000 0.0251060447452 -1.681442652932 0.9996813374598 -79.92237558732 0.9996813374598 -79.92237558732 0.0251070760665 21.847487833873
8.695100000000000 0.0251051247494 -1.683115340982 0.9996813600651 -79.92335685924 0.9996813600651 -79.92335685924 0.0251061562860 21.847199900280
8.695200000000000 0.0251042028580 -1.684789139674 0.9996813827163 -79.92433824226 0.9996813827163 -79.92433824226 0.0251052346105 21.846912861580
8.695300000000001 0.0251032790624 -1.686464054502 0.9996814054138 -79.92531973690 0.9996814054138 -79.92531973690 0.0251043110313 21.846626721584
8.695400000000001 0.0251023533606 -1.688140086575 0.9996814281576 -79.92630134328 0.9996814281576 -79.92630134328 0.0251033855466 21.846341481589
8.695500000000001 0.0251014257434 -1.689817241046 0.9996814509477 -79.92728306194 0.9996814509477 -79.92728306194 0.0251024581471 21.846057146322
8.695600000000001 0.0251004962108 -1.691495518974 0.9996814737844 -79.92826489289 0.9996814737844 -79.92826489289 0.0251015288326 21.845773715381
8.695700000000000 0.0250995647534 -1.693174925815 0.9996814966680 -79.92924683666 0.9996814966680 -79.92924683666 0.0251005975939 21.845491193232
8.695800000000000 0.0250986313680 -1.694855462839 0.9996815195982 -79.93022889345 0.9996815195982 -79.93022889345 0.0250996644279 21.845209582280
8.695900000000000 0.0250976960476 -1.696537134735 0.9996815425753 -79.93121106368 0.9996815425753 -79.93121106368 0.0250987293275 21.844928885592
8.696000000000000 0.0250967587875 -1.698219944698 0.9996815655995 -79.93219334762 0.9996815655995 -79.93219334762 0.0250977922878 21.844649105318
8.696100000000001 0.0250958195829 -1.699903895342 0.9996815886709 -79.93317574555 0.9996815886709 -79.93317574555 0.0250968533044 21.844370244032
8.696200000000001 0.0250948784268 -1.701588990587 0.9996816117895 -79.93415825788 0.9996816117895 -79.93415825788 0.0250959123700 21.844092305588
8.696300000000001 0.0250939353158 -1.703275233453 0.9996816349556 -79.93514088482 0.9996816349556 -79.93514088482 0.0250949694812 21.843815290978
8.696400000000001 0.0250929902429 -1.704962627129 0.9996816581692 -79.93612362677 0.9996816581692 -79.93612362677 0.0250940246313 21.843539204457
8.696500000000000 0.0250920432050 -1.706651174937 0.9996816814306 -79.93710648393 0.9996816814306 -79.93710648393 0.0250930778168 21.843264046676
8.696600000000000 0.0250910941927 -1.708340881264 0.9996817047397 -79.93808945683 0.9996817047397 -79.93808945683 0.0250921290286 21.842989823037
8.696700000000000 0.0250901432023 -1.710031748652 0.9996817280967 -79.93907254570 0.9996817280967 -79.93907254570 0.0250911782629 21.842716535394
8.696800000000001 0.0250891902303 -1.711723780232 0.9996817515019 -79.94005575075 0.9996817515019 -79.94005575075 0.0250902255162 21.842444184826
8.696900000000001 0.0250882352685 -1.713416980029 0.9996817749553 -79.94103907246 0.9996817749553 -79.94103907246 0.0250892707802 21.842172776068
8.697000000000001 0.0250872783121 -1.715111350895 0.9996817984568 -79.94202251111 0.9996817984568 -79.94202251111 0.0250883140504 21.841902311632
8.697100000000001 0.0250863193557 -1.716806897186 0.9996818220071 -79.94300606702 0.9996818220071 -79.94300606702 0.0250873553211 21.841632793399
8.697200000000000 0.0250853583930 -1.718503621555 0.9996818456057 -79.94398974056 0.9996818456057 -79.94398974056 0.0250863945861 21.841364225479
8.697300000000000 0.0250843954195 -1.720201527432 0.9996818692531 -79.94497353199 0.9996818692531 -79.94497353199 0.0250854318410 21.841096609603
8.697400000000000 0.0250834304281 -1.721900619254 0.9996818929494 -79.94595744173 0.9996818929494 -79.94595744173 0.0250844670785 21.840829949123
8.697500000000000 0.0250824634145 -1.723600899721 0.9996819166948 -79.94694147004 0.9996819166948 -79.94694147004 0.0250835002944 21.840564246330
8.697600000000001 0.0250814943729 -1.725302371510 0.9996819404890 -79.94792561726 0.9996819404890 -79.94792561726 0.0250825314830 21.840299504945
8.697700000000001 0.0250805232961 -1.727005040043 0.9996819643327 -79.94890988381 0.9996819643327 -79.94890988381 0.0250815606370 21.840035727419
8.697800000000001 0.0250795501798 -1.728708907631 0.9996819882257 -79.94989426994 0.9996819882257 -79.94989426994 0.0250805877522 21.839772916312
8.697900000000001 0.0250785750184 -1.730413977411 0.9996820121681 -79.95087877598 0.9996820121681 -79.95087877598 0.0250796128229 21.839511074859
8.698000000000000 0.0250775978045 -1.732120254652 0.9996820361604 -79.95186340238 0.9996820361604 -79.95186340238 0.0250786358416 21.839250205997
8.698100000000000 0.0250766185323 -1.733827742210 0.9996820602025 -79.95284814947 0.9996820602025 -79.95284814947 0.0250776568027 21.838990313078
8.698200000000000 0.0250756371966 -1.735536443405 0.9996820842944 -79.95383301755 0.9996820842944 -79.95383301755 0.0250766757010 21.838731398735
8.698300000000000 0.0250746537921 -1.737246362013 0.9996821084365 -79.95481800693 0.9996821084365 -79.95481800693 0.0250756925311 21.838473465210
8.698400000000001 0.0250736683130 -1.738957500607 0.9996821326285 -79.95580311797 0.9996821326285 -79.95580311797 0.0250747072873 21.838216516412
8.698500000000001 0.0250726807543 -1.740669863362 0.9996821568710 -79.95678835096 0.9996821568710 -79.95678835096 0.0250737199645 21.837960553870
8.698600000000001 0.0250716911075 -1.742383455237 0.9996821811641 -79.95777370639 0.9996821811641 -79.95777370639 0.0250727305541 21.837705581854
8.698700000000001 0.0250706993672 -1.744098279009 0.9996822055077 -79.95875918458 0.9996822055077 -79.95875918458 0.0250717390510 21.837451603534
8.698800000000000 0.0250697055279 -1.745814338086 0.9996822299020 -79.95974478586 0.9996822299020 -79.95974478586 0.0250707454495 21.837198621821
8.698900000000000 0.0250687095848 -1.747531636277 0.9996822543473 -79.96073051050 0.9996822543473 -79.96073051050 0.0250697497449 21.836946638330
8.699000000000000 0.0250677115299 -1.749250177567 0.9996822788436 -79.96171635899 0.9996822788436 -79.96171635899 0.0250687519291 21.836695657879
8.699100000000001 0.0250667113586 -1.750969965559 0.9996823033911 -79.96270233158 0.9996823033911 -79.96270233158 0.0250677519975 21.836445682128
8.699200000000001 0.0250657090632 -1.752691004252 0.9996823279899 -79.96368842875 0.9996823279899 -79.96368842875 0.0250667499425 21.836196715506
8.699300000000001 0.0250647046389 -1.754413297059 0.9996823526401 -79.96467465075 0.9996823526401 -79.96467465075 0.0250657457594 21.835948760068
8.699400000000001 0.0250636980811 -1.756136846817 0.9996823773419 -79.96566099788 0.9996823773419 -79.96566099788 0.0250647394433 21.835701818388
8.699500000000000 0.0250626893792 -1.757861660025 0.9996824020956 -79.96664747074 0.9996824020956 -79.96664747074 0.0250637309837 21.835455895254
8.699600000000000 0.0250616785310 -1.759587737870 0.9996824269011 -79.96763406947 0.9996824269011 -79.96763406947 0.0250627203786 21.835210992319
8.699700000000000 0.0250606655277 -1.761315085944 0.9996824517587 -79.96862079460 0.9996824517587 -79.96862079460 0.0250617076191 21.834967113702
8.699800000000000 0.0250596503664 -1.763043705706 0.9996824766683 -79.96960764628 0.9996824766683 -79.96960764628 0.0250606927022 21.834724261465
8.699900000000001 0.0250586330359 -1.764773604447 0.9996825016304 -79.97059462518 0.9996825016304 -79.97059462519 0.0250596756167 21.834482440308
8.700000000000001 0.0250576135364 -1.766504782117 0.9996825266448 -79.97158173129 0.9996825266448 -79.97158173129 0.0250586563630 21.834241650768