! Sonnet Data File
! From: emgraph Version : 16.52
! From Project: 171117_Xmon_fullysym
! Data is De-embedded 
! Data File Written: 11/26/2017 21:44:47
!< HDATE 11/26/2017 17:24:49
!< MDATE 11/26/2017 17:24:49
!< PARAMS
!< Lj = 11.0
!< Gap = 1.0
!< Pwid = 2000.0
!< Airgap = 6.0
!< Width = 10.0
!< Lj1 = 10.6
!< END PARAMS
# GHZ S MA R 50.90000
8.600000000000001 0.0253404137201 -0.438339165675 0.9996756028356 -79.02753376087 0.9996756028356 -79.02753376115 0.0253413607561 22.393427673287
!< P1 F=8.6 Eeff=(6.44845572 -2.9799e-5) Z0=(50.9087207 1.17006e-4) R=0.0 C=0.0 
!< P2 F=8.6 Eeff=(6.44845572 -2.9799e-5) Z0=(50.9087207 1.17006e-4) R=0.0 C=0.0 
8.600200000000001 0.0253398830652 -0.440922595825 0.9996756161019 -79.02941979698 0.9996756161019 -79.02941979698 0.0253408302314 22.392239860868
8.600400000000000 0.0253393509889 -0.443506837738 0.9996756293781 -79.03130591755 0.9996756293781 -79.03130591755 0.0253402982650 22.391052653512
8.600600000000000 0.0253388174587 -0.446091863891 0.9996756426905 -79.03319212228 0.9996756426905 -79.03319212228 0.0253397648449 22.389866064209
8.600800000000001 0.0253382824724 -0.448677675470 0.9996756560392 -79.03507841130 0.9996756560392 -79.03507841130 0.0253392299689 22.388680094206
8.601000000000001 0.0253377460258 -0.451264274977 0.9996756694244 -79.03696478487 0.9996756694244 -79.03696478487 0.0253386936328 22.387494745243
8.601200000000000 0.0253372081158 -0.453851664104 0.9996756828460 -79.03885124315 0.9996756828460 -79.03885124315 0.0253381558336 22.386310018798
8.601400000000000 0.0253366687380 -0.456439845225 0.9996756963041 -79.04073778641 0.9996756963041 -79.04073778641 0.0253376165668 22.385125916975
8.601600000000001 0.0253361278889 -0.459028820564 0.9996757097988 -79.04262441485 0.9996757097988 -79.04262441485 0.0253370758289 22.383942441176
8.601800000000001 0.0253355855653 -0.461618591957 0.9996757233304 -79.04451112867 0.9996757233304 -79.04451112867 0.0253365336167 22.382759592915
8.602000000000000 0.0253350417623 -0.464209162014 0.9996757368988 -79.04639792815 0.9996757368988 -79.04639792815 0.0253359899254 22.381577374428
8.602200000000000 0.0253344964778 -0.466800531977 0.9996757505041 -79.04828481341 0.9996757505041 -79.04828481341 0.0253354447528 22.380395786714
8.602400000000001 0.0253339497061 -0.469392705166 0.9996757641464 -79.05017178479 0.9996757641464 -79.05017178479 0.0253348980932 22.379214832226
8.602600000000001 0.0253334014454 -0.471985682640 0.9996757778259 -79.05205884239 0.9996757778259 -79.05205884239 0.0253343499448 22.378034511955
8.602800000000000 0.0253328516907 -0.474579467136 0.9996757915425 -79.05394598651 0.9996757915425 -79.05394598651 0.0253338003026 22.376854828050
8.603000000000000 0.0253323004387 -0.477174060633 0.9996758052965 -79.05583321734 0.9996758052965 -79.05583321734 0.0253332491634 22.375675782036
8.603200000000001 0.0253317476852 -0.479769465418 0.9996758190878 -79.05772053512 0.9996758190878 -79.05772053512 0.0253326965229 22.374497375827
8.603400000000001 0.0253311934267 -0.482365683474 0.9996758329166 -79.05960794007 0.9996758329166 -79.05960794007 0.0253321423777 22.373319611130
8.603600000000000 0.0253306376595 -0.484962717069 0.9996758467830 -79.06149543240 0.9996758467830 -79.06149543240 0.0253315867239 22.372142489488
8.603800000000000 0.0253300803790 -0.487560568763 0.9996758606871 -79.06338301238 0.9996758606871 -79.06338301238 0.0253310295571 22.370966012924
8.604000000000001 0.0253295215822 -0.490159240165 0.9996758746288 -79.06527068018 0.9996758746288 -79.06527068018 0.0253304708742 22.369790183060
8.604200000000001 0.0253289612655 -0.492758733494 0.9996758886085 -79.06715843602 0.9996758886085 -79.06715843602 0.0253299106717 22.368615001307
8.604400000000000 0.0253283994235 -0.495359051691 0.9996759026261 -79.06904628022 0.9996759026261 -79.06904628022 0.0253293489440 22.367440470232
8.604600000000001 0.0253278360543 -0.497960195878 0.9996759166817 -79.07093421288 0.9996759166817 -79.07093421288 0.0253287856895 22.366266590724
8.604800000000001 0.0253272711521 -0.500562169473 0.9996759307756 -79.07282223434 0.9996759307756 -79.07282223434 0.0253282209021 22.365093365261
8.605000000000000 0.0253267047145 -0.503164973727 0.9996759449076 -79.07471034476 0.9996759449076 -79.07471034476 0.0253276545796 22.363920795097
8.605200000000000 0.0253261367364 -0.505768611518 0.9996759590779 -79.07659854442 0.9996759590779 -79.07659854442 0.0253270867167 22.362748882574
8.605400000000001 0.0253255672151 -0.508373084564 0.9996759732867 -79.07848683349 0.9996759732867 -79.07848683349 0.0253265173110 22.361577628867
8.605600000000001 0.0253249961448 -0.510978396019 0.9996759875340 -79.08037521229 0.9996759875340 -79.08037521229 0.0253259463565 22.360407036419
8.605800000000000 0.0253244235239 -0.513584546844 0.9996760018199 -79.08226368094 0.9996760018199 -79.08226368094 0.0253253738516 22.359237106385
8.606000000000000 0.0253238493459 -0.516191540736 0.9996760161446 -79.08415223981 0.9996760161446 -79.08415223981 0.0253247997899 22.358067841324
8.606200000000001 0.0253232736086 -0.518799379069 0.9996760305080 -79.08604088903 0.9996760305080 -79.08604088903 0.0253242241690 22.356899242498
8.606400000000001 0.0253226963074 -0.521408064322 0.9996760449104 -79.08792962888 0.9996760449104 -79.08792962888 0.0253236469845 22.355731311897
8.606600000000000 0.0253221174382 -0.524017598913 0.9996760593518 -79.08981845957 0.9996760593518 -79.08981845957 0.0253230682323 22.354564051329
8.606800000000000 0.0253215369968 -0.526627985157 0.9996760738322 -79.09170738138 0.9996760738323 -79.09170738138 0.0253224879081 22.353397462883
8.607000000000001 0.0253209549797 -0.529239225253 0.9996760883519 -79.09359639451 0.9996760883519 -79.09359639451 0.0253219060084 22.352231548106
8.607200000000001 0.0253203713821 -0.531851321681 0.9996761029109 -79.09548549922 0.9996761029109 -79.09548549922 0.0253213225286 22.351066309066
8.607400000000000 0.0253197862007 -0.534464276567 0.9996761175093 -79.09737469572 0.9996761175093 -79.09737469572 0.0253207374651 22.349901747420
8.607600000000000 0.0253191994308 -0.537078092489 0.9996761321472 -79.09926398429 0.9996761321472 -79.09926398429 0.0253201508133 22.348737865239
8.607800000000001 0.0253186110686 -0.539692771673 0.9996761468247 -79.10115336515 0.9996761468247 -79.10115336515 0.0253195625695 22.347574664252
8.608000000000001 0.0253180211094 -0.542308316727 0.9996761615419 -79.10304283857 0.9996761615419 -79.10304283857 0.0253189727290 22.346412146628
8.608200000000000 0.0253174295499 -0.544924729634 0.9996761762989 -79.10493240474 0.9996761762989 -79.10493240474 0.0253183812884 22.345250313837
8.608400000000001 0.0253168363853 -0.547542013028 0.9996761910958 -79.10682206395 0.9996761910958 -79.10682206395 0.0253177882429 22.344089168189
8.608600000000001 0.0253162416117 -0.550160169297 0.9996762059328 -79.10871181643 0.9996762059328 -79.10871181643 0.0253171935887 22.342928711263
8.608800000000000 0.0253156452248 -0.552779200785 0.9996762208098 -79.11060166243 0.9996762208098 -79.11060166243 0.0253165973215 22.341768945280
8.609000000000000 0.0253150472202 -0.555399110004 0.9996762357271 -79.11249160221 0.9996762357271 -79.11249160221 0.0253159994368 22.340609872066
8.609200000000001 0.0253144475942 -0.558019899231 0.9996762506846 -79.11438163599 0.9996762506846 -79.11438163599 0.0253153999309 22.339451493354
8.609400000000001 0.0253138463417 -0.560641571208 0.9996762656827 -79.11627176406 0.9996762656827 -79.11627176406 0.0253147987988 22.338293811432
8.609600000000000 0.0253132434599 -0.563264127601 0.9996762807211 -79.11816198659 0.9996762807211 -79.11816198659 0.0253141960377 22.337136827841
8.609800000000000 0.0253126389427 -0.565887571943 0.9996762958003 -79.12005230394 0.9996762958003 -79.12005230394 0.0253135916413 22.335980545053
8.610000000000001 0.0253120327871 -0.568511905856 0.9996763109201 -79.12194271628 0.9996763109201 -79.12194271628 0.0253129856069 22.334824964627
8.610200000000001 0.0253114249888 -0.571137132040 0.9996763260808 -79.12383322387 0.9996763260808 -79.12383322387 0.0253123779299 22.333670088410
8.610400000000000 0.0253108155429 -0.573763253003 0.9996763412824 -79.12572382699 0.9996763412824 -79.12572382699 0.0253117686057 22.332515918798
8.610600000000000 0.0253102044450 -0.576390271452 0.9996763565251 -79.12761452590 0.9996763565251 -79.12761452590 0.0253111576297 22.331362457641
8.610800000000001 0.0253095916913 -0.579018189573 0.9996763718089 -79.12950532083 0.9996763718089 -79.12950532083 0.0253105449981 22.330209706826
8.611000000000001 0.0253089772770 -0.581647009966 0.9996763871340 -79.13139621206 0.9996763871340 -79.13139621206 0.0253099307062 22.329057668453
8.611200000000000 0.0253083611977 -0.584276735378 0.9996764025005 -79.13328719984 0.9996764025005 -79.13328719984 0.0253093147496 22.327906344520
8.611400000000000 0.0253077434494 -0.586907367981 0.9996764179084 -79.13517828441 0.9996764179084 -79.13517828441 0.0253086971242 22.326755736963
8.611600000000001 0.0253071240277 -0.589538910203 0.9996764333578 -79.13706946603 0.9996764333578 -79.13706946603 0.0253080778257 22.325605847815
8.611800000000001 0.0253065029278 -0.592171365122 0.9996764488490 -79.13896074498 0.9996764488490 -79.13896074498 0.0253074568492 22.324456679121
8.612000000000000 0.0253058801452 -0.594804734932 0.9996764643820 -79.14085212152 0.9996764643820 -79.14085212152 0.0253068341903 22.323308233138
8.612200000000001 0.0253052556753 -0.597439022391 0.9996764799568 -79.14274359594 0.9996764799568 -79.14274359594 0.0253062098444 22.322160511913
8.612400000000001 0.0253046295142 -0.600074229972 0.9996764955737 -79.14463516844 0.9996764955737 -79.14463516844 0.0253055838076 22.321013517064
8.612600000000000 0.0253040016576 -0.602710359931 0.9996765112326 -79.14652683929 0.9996765112326 -79.14652683929 0.0253049560755 22.319867250818
8.612800000000000 0.0253033720998 -0.605347415535 0.9996765269338 -79.14841860881 0.9996765269338 -79.14841860881 0.0253043266425 22.318721715624
8.613000000000001 0.0253027408379 -0.607985398630 0.9996765426774 -79.15031047720 0.9996765426774 -79.15031047720 0.0253036955055 22.317576912936
8.613200000000001 0.0253021078658 -0.610624312582 0.9996765584634 -79.15220244479 0.9996765584634 -79.15220244479 0.0253030626587 22.316432845456
8.613400000000000 0.0253014731796 -0.613264159677 0.9996765742919 -79.15409451182 0.9996765742919 -79.15409451182 0.0253024280980 22.315289514986
8.613600000000000 0.0253008367749 -0.615904942327 0.9996765901631 -79.15598667854 0.9996765901631 -79.15598667854 0.0253017918192 22.314146923611
8.613800000000001 0.0253001986470 -0.618546663324 0.9996766060771 -79.15787894524 0.9996766060771 -79.15787894524 0.0253011538174 22.313005073547
8.614000000000001 0.0252995587914 -0.621189325348 0.9996766220339 -79.15977131217 0.9996766220339 -79.15977131217 0.0253005140881 22.311863966705
8.614200000000000 0.0252989172032 -0.623832931222 0.9996766380338 -79.16166377963 0.9996766380338 -79.16166377963 0.0252998726265 22.310723605394
8.614400000000000 0.0252982738774 -0.626477483594 0.9996766540768 -79.16355634791 0.9996766540768 -79.16355634791 0.0252992294276 22.309583992021
8.614600000000001 0.0252976288098 -0.629122985092 0.9996766701630 -79.16544901725 0.9996766701630 -79.16544901725 0.0252985844872 22.308445128371
8.614800000000001 0.0252969819962 -0.631769438115 0.9996766862926 -79.16734178791 0.9996766862926 -79.16734178791 0.0252979378010 22.307307016430
8.615000000000000 0.0252963334305 -0.634416846000 0.9996767024656 -79.16923466023 0.9996767024656 -79.16923466023 0.0252972893631 22.306169658991
8.615200000000000 0.0252956831100 -0.637065210565 0.9996767186821 -79.17112763438 0.9996767186821 -79.17112763438 0.0252966391705 22.305033057444
8.615400000000001 0.0252950310283 -0.639714535374 0.9996767349424 -79.17302071074 0.9996767349424 -79.17302071074 0.0252959872171 22.303897214529
8.615600000000001 0.0252943771812 -0.642364822873 0.9996767512465 -79.17491388954 0.9996767512465 -79.17491388954 0.0252953334985 22.302762132281
8.615800000000000 0.0252937215639 -0.645016075719 0.9996767675945 -79.17680717108 0.9996767675945 -79.17680717108 0.0252946780100 22.301627812900
8.616000000000000 0.0252930641717 -0.647668296708 0.9996767839864 -79.17870055562 0.9996767839864 -79.17870055562 0.0252940207469 22.300494258607
8.616200000000001 0.0252924049994 -0.650321488842 0.9996768004226 -79.18059404348 0.9996768004226 -79.18059404348 0.0252933617039 22.299361471705
8.616400000000001 0.0252917440433 -0.652975654266 0.9996768169030 -79.18248763487 0.9996768169030 -79.18248763487 0.0252927008775 22.298229453926
8.616600000000000 0.0252910812968 -0.655630796716 0.9996768334278 -79.18438133018 0.9996768334278 -79.18438133018 0.0252920382609 22.297098208424
8.616800000000001 0.0252904167566 -0.658286918136 0.9996768499971 -79.18627512960 0.9996768499971 -79.18627512960 0.0252913738510 22.295967736559
8.617000000000001 0.0252897504173 -0.660944021721 0.9996768666110 -79.18816903345 0.9996768666110 -79.18816903345 0.0252907076422 22.294838040951
8.617200000000000 0.0252890822738 -0.663602110394 0.9996768832696 -79.19006304203 0.9996768832696 -79.19006304203 0.0252900396294 22.293709123806
8.617400000000000 0.0252884123213 -0.666261186925 0.9996768999732 -79.19195715562 0.9996768999732 -79.19195715562 0.0252893698080 22.292580987367
8.617600000000001 0.0252877405550 -0.668921253837 0.9996769167216 -79.19385137451 0.9996769167216 -79.19385137451 0.0252886981730 22.291453634172
8.617800000000001 0.0252870669697 -0.671582314472 0.9996769335151 -79.19574569899 0.9996769335151 -79.19574569899 0.0252880247193 22.290327066225
8.618000000000000 0.0252863915605 -0.674244371522 0.9996769503539 -79.19764012935 0.9996769503539 -79.19764012935 0.0252873494421 22.289201285891
8.618200000000000 0.0252857143230 -0.676907427440 0.9996769672380 -79.19953466586 0.9996769672380 -79.19953466586 0.0252866723368 22.288076295418
8.618400000000001 0.0252850352511 -0.679571485790 0.9996769841675 -79.20142930887 0.9996769841675 -79.20142930887 0.0252859933974 22.286952097370
8.618600000000001 0.0252843543403 -0.682236549436 0.9996770011426 -79.20332405865 0.9996770011426 -79.20332405865 0.0252853126194 22.285828693879
8.618800000000000 0.0252836715859 -0.684902620720 0.9996770181635 -79.20521891547 0.9996770181635 -79.20521891547 0.0252846299981 22.284706087162
8.619000000000000 0.0252829869823 -0.687569703023 0.9996770352301 -79.20711387966 0.9996770352301 -79.20711387966 0.0252839455279 22.283584279872
8.619200000000001 0.0252823005248 -0.690237799143 0.9996770523427 -79.20900895150 0.9996770523427 -79.20900895150 0.0252832592041 22.282463274033
8.619400000000001 0.0252816122086 -0.692906911811 0.9996770695013 -79.21090413128 0.9996770695013 -79.21090413128 0.0252825710218 22.281343072038
8.619600000000000 0.0252809220280 -0.695577044236 0.9996770867061 -79.21279941931 0.9996770867061 -79.21279941931 0.0252818809755 22.280223676396
8.619800000000000 0.0252802299776 -0.698248199756 0.9996771039573 -79.21469481592 0.9996771039573 -79.21469481592 0.0252811890596 22.279105089589
8.620000000000001 0.0252795360522 -0.700920381097 0.9996771212549 -79.21659032143 0.9996771212549 -79.21659032143 0.0252804952690 22.277987314163
8.620200000000001 0.0252788402477 -0.703593590960 0.9996771385991 -79.21848593606 0.9996771385991 -79.21848593606 0.0252797995996 22.276870351813
8.620400000000000 0.0252781425583 -0.706267832255 0.9996771559899 -79.22038166015 0.9996771559899 -79.22038166015 0.0252791020458 22.275754205479
8.620600000000001 0.0252774429783 -0.708943108704 0.9996771734275 -79.22227749405 0.9996771734275 -79.22227749405 0.0252784026015 22.274638877636
8.620800000000001 0.0252767415032 -0.711619422608 0.9996771909121 -79.22417343801 0.9996771909121 -79.22417343801 0.0252777012625 22.273524370448
8.621000000000000 0.0252760381273 -0.714296777494 0.9996772084437 -79.22606949238 0.9996772084437 -79.22606949238 0.0252769980230 22.272410686521
8.621200000000000 0.0252753328458 -0.716975176125 0.9996772260226 -79.22796565743 0.9996772260226 -79.22796565743 0.0252762928781 22.271297828029
8.621400000000001 0.0252746256528 -0.719654621705 0.9996772436488 -79.22986193351 0.9996772436488 -79.22986193351 0.0252755858220 22.270185797906
8.621600000000001 0.0252739165431 -0.722335117588 0.9996772613224 -79.23175832093 0.9996772613224 -79.23175832093 0.0252748768496 22.269074598264
8.621800000000000 0.0252732055112 -0.725016666611 0.9996772790436 -79.23365482001 0.9996772790436 -79.23365482001 0.0252741659553 22.267964231885
8.622000000000000 0.0252724925525 -0.727699271609 0.9996772968126 -79.23555143101 0.9996772968126 -79.23555143101 0.0252734531345 22.266854700785
8.622200000000001 0.0252717776610 -0.730382936091 0.9996773146293 -79.23744815430 0.9996773146293 -79.23744815430 0.0252727383812 22.265746007883
8.622400000000001 0.0252710608316 -0.733067662911 0.9996773324940 -79.23934499017 0.9996773324940 -79.23934499017 0.0252720216902 22.264638155503
8.622600000000000 0.0252703420584 -0.735753455739 0.9996773504069 -79.24124193896 0.9996773504069 -79.24124193896 0.0252713030558 22.263531146152
8.622800000000000 0.0252696213365 -0.738440317011 0.9996773683679 -79.24313900097 0.9996773683679 -79.24313900097 0.0252705824731 22.262424982506
8.623000000000001 0.0252688986596 -0.741128250735 0.9996773863774 -79.24503617656 0.9996773863774 -79.24503617656 0.0252698599356 22.261319667129
8.623200000000001 0.0252681740237 -0.743817258945 0.9996774044353 -79.24693346597 0.9996774044353 -79.24693346597 0.0252691354396 22.260215202248
8.623400000000000 0.0252674474216 -0.746507346056 0.9996774225419 -79.24883086963 0.9996774225419 -79.24883086963 0.0252684089775 22.259111590897
8.623600000000000 0.0252667188494 -0.749198514361 0.9996774406972 -79.25072838776 0.9996774406972 -79.25072838776 0.0252676805456 22.258008835019
8.623800000000001 0.0252659882998 -0.751890767946 0.9996774589014 -79.25262602079 0.9996774589014 -79.25262602079 0.0252669501368 22.256906937887
8.624000000000001 0.0252652557687 -0.754584109209 0.9996774771547 -79.25452376895 0.9996774771547 -79.25452376895 0.0252662177467 22.255805901604
8.624200000000000 0.0252645212498 -0.757278541756 0.9996774954571 -79.25642163263 0.9996774954571 -79.25642163263 0.0252654833692 22.254705729093
8.624400000000001 0.0252637847374 -0.759974068983 0.9996775138088 -79.25831961216 0.9996775138088 -79.25831961216 0.0252647469985 22.253606422880
8.624600000000001 0.0252630462259 -0.762670694315 0.9996775322100 -79.26021770787 0.9996775322100 -79.26021770787 0.0252640086289 22.252507985585
8.624800000000000 0.0252623057106 -0.765368420236 0.9996775506607 -79.26211592002 0.9996775506607 -79.26211592002 0.0252632682560 22.251410419386
8.625000000000000 0.0252615631841 -0.768067251074 0.9996775691612 -79.26401424906 0.9996775691612 -79.26401424906 0.0252625258721 22.250313727891
8.625200000000001 0.0252608186427 -0.770767189215 0.9996775877115 -79.26591269520 0.9996775877115 -79.26591269520 0.0252617814736 22.249217912601
8.625400000000001 0.0252600720793 -0.773468238296 0.9996776063117 -79.26781125886 0.9996776063117 -79.26781125886 0.0252610350536 22.248122977143
8.625600000000000 0.0252593234878 -0.776170402314 0.9996776249622 -79.26970994041 0.9996776249622 -79.26970994041 0.0252602866057 22.247028924014
8.625800000000000 0.0252585728635 -0.778873683960 0.9996776436629 -79.27160874010 0.9996776436629 -79.27160874010 0.0252595361253 22.245935755540
8.626000000000001 0.0252578202000 -0.781578086832 0.9996776624140 -79.27350765833 0.9996776624140 -79.27350765833 0.0252587836061 22.244843474719
8.626200000000001 0.0252570654918 -0.784283613982 0.9996776812156 -79.27540669541 0.9996776812156 -79.27540669541 0.0252580290425 22.243752084225
8.626400000000000 0.0252563087331 -0.786990269111 0.9996777000679 -79.27730585169 0.9996777000679 -79.27730585169 0.0252572724287 22.242661586687
8.626600000000000 0.0252555499173 -0.789698055883 0.9996777189710 -79.27920512754 0.9996777189710 -79.27920512754 0.0252565137582 22.241571985030
8.626800000000001 0.0252547890391 -0.792406977503 0.9996777379251 -79.28110452329 0.9996777379251 -79.28110452329 0.0252557530256 22.240483281843
8.627000000000001 0.0252540260933 -0.795117036864 0.9996777569303 -79.28300403924 0.9996777569303 -79.28300403924 0.0252549902258 22.239395479660
8.627200000000000 0.0252532610724 -0.797828238335 0.9996777759868 -79.28490367583 0.9996777759868 -79.28490367583 0.0252542253512 22.238308581911
8.627400000000000 0.0252524939716 -0.800540584852 0.9996777950947 -79.28680343334 0.9996777950947 -79.28680343334 0.0252534583970 22.237222590695
8.627600000000001 0.0252517247846 -0.803254079999 0.9996778142541 -79.28870331214 0.9996778142541 -79.28870331214 0.0252526893570 22.236137509171
8.627800000000001 0.0252509535044 -0.805968727690 0.9996778334652 -79.29060331264 0.9996778334652 -79.29060331264 0.0252519182241 22.235053340526
8.628000000000000 0.0252501801275 -0.808684530386 0.9996778527281 -79.29250343505 0.9996778527281 -79.29250343505 0.0252511449949 22.233970086414
8.628200000000001 0.0252494046453 -0.811401492651 0.9996778720430 -79.29440367988 0.9996778720430 -79.29440367988 0.0252503696607 22.232887750905
8.628400000000001 0.0252486270530 -0.814119617658 0.9996778914101 -79.29630404740 0.9996778914101 -79.29630404740 0.0252495922167 22.231806336097
8.628600000000000 0.0252478473439 -0.816838908939 0.9996779108293 -79.29820453800 0.9996779108293 -79.29820453800 0.0252488126563 22.230725845305
8.628800000000000 0.0252470655120 -0.819559370373 0.9996779303011 -79.30010515206 0.9996779303011 -79.30010515206 0.0252480309734 22.229646281128
8.629000000000001 0.0252462815518 -0.822281004971 0.9996779498253 -79.30200588987 0.9996779498253 -79.30200588987 0.0252472471626 22.228567646392
8.629200000000001 0.0252454954566 -0.825003816656 0.9996779694023 -79.30390675184 0.9996779694023 -79.30390675184 0.0252464612172 22.227489944021
8.629400000000000 0.0252447072200 -0.827727809145 0.9996779890322 -79.30580773835 0.9996779890322 -79.30580773835 0.0252456731307 22.226413177160
8.629600000000000 0.0252439168361 -0.830452985930 0.9996780087151 -79.30770884973 0.9996780087151 -79.30770884973 0.0252448828973 22.225337348473
8.629800000000001 0.0252431242980 -0.833179351122 0.9996780284511 -79.30961008641 0.9996780284511 -79.30961008641 0.0252440905099 22.224262461180
8.630000000000001 0.0252423296006 -0.835906907499 0.9996780482404 -79.31151144867 0.9996780482404 -79.31151144867 0.0252432959637 22.223188517858
8.630200000000000 0.0252415327371 -0.838635659291 0.9996780680833 -79.31341293691 0.9996780680833 -79.31341293691 0.0252424992517 22.222115521464
8.630400000000000 0.0252407337010 -0.841365609967 0.9996780879796 -79.31531455152 0.9996780879796 -79.31531455152 0.0252417003675 22.221043475366
8.630600000000001 0.0252399324854 -0.844096763743 0.9996781079298 -79.31721629290 0.9996781079298 -79.31721629290 0.0252408993041 22.219972382454
8.630800000000001 0.0252391290846 -0.846829124214 0.9996781279340 -79.31911816139 0.9996781279340 -79.31911816139 0.0252400960559 22.218902245368
8.631000000000000 0.0252383234923 -0.849562694687 0.9996781479922 -79.32102015736 0.9996781479922 -79.32102015736 0.0252392906166 22.217833067402
8.631200000000000 0.0252375157020 -0.852297479057 0.9996781681046 -79.32292228119 0.9996781681046 -79.32292228119 0.0252384829796 22.216764851426
8.631400000000001 0.0252367057065 -0.855033481521 0.9996781882714 -79.32482453330 0.9996781882714 -79.32482453330 0.0252376731378 22.215697600850
8.631600000000001 0.0252358935003 -0.857770705357 0.9996782084928 -79.32672691401 0.9996782084928 -79.32672691401 0.0252368610857 22.214631318237
8.631800000000000 0.0252350790766 -0.860509154594 0.9996782287689 -79.32862942372 0.9996782287689 -79.32862942372 0.0252360468164 22.213566006792
8.632000000000000 0.0252342624287 -0.863248833080 0.9996782490998 -79.33053206284 0.9996782490998 -79.33053206284 0.0252352303233 22.212501669684
8.632200000000001 0.0252334435504 -0.865989744496 0.9996782694857 -79.33243483172 0.9996782694857 -79.33243483172 0.0252344116002 22.211438309833
8.632400000000001 0.0252326224342 -0.868731893172 0.9996782899268 -79.33433773080 0.9996782899268 -79.33433773080 0.0252335906395 22.210375930717
8.632600000000000 0.0252317990748 -0.871475282166 0.9996783104232 -79.33624076040 0.9996783104232 -79.33624076040 0.0252327674360 22.209314534947
8.632800000000001 0.0252309734639 -0.874219916478 0.9996783309752 -79.33814392100 0.9996783309752 -79.33814392100 0.0252319419814 22.208254126244
8.633000000000001 0.0252301455964 -0.876965798969 0.9996783515827 -79.34004721290 0.9996783515827 -79.34004721290 0.0252311142706 22.207194707267
8.633200000000000 0.0252293154653 -0.879712933955 0.9996783722461 -79.34195063651 0.9996783722461 -79.34195063651 0.0252302842966 22.206136280966
8.633400000000000 0.0252284830625 -0.882461325951 0.9996783929655 -79.34385419232 0.9996783929655 -79.34385419232 0.0252294520512 22.205078851369
8.633600000000001 0.0252276483831 -0.885210977969 0.9996784137410 -79.34575788060 0.9996784137410 -79.34575788060 0.0252286175296 22.204022420824
8.633800000000001 0.0252268114196 -0.887961894301 0.9996784345727 -79.34766170180 0.9996784345727 -79.34766170180 0.0252277807242 22.202966992941
8.634000000000000 0.0252259721655 -0.890714078945 0.9996784554610 -79.34956565630 0.9996784554610 -79.34956565630 0.0252269416287 22.201912570492
8.634200000000000 0.0252251306113 -0.893467537093 0.9996784764059 -79.35146974465 0.9996784764059 -79.35146974465 0.0252261002334 22.200859158119
8.634400000000001 0.0252242867543 -0.896222270852 0.9996784974076 -79.35337396702 0.9996784974076 -79.35337396702 0.0252252565358 22.199806757029
8.634600000000001 0.0252234405856 -0.898978284960 0.9996785184661 -79.35527832393 0.9996785184661 -79.35527832393 0.0252244105269 22.198755371686
8.634800000000000 0.0252225920976 -0.901735584190 0.9996785395819 -79.35718281583 0.9996785395819 -79.35718281583 0.0252235621990 22.197705005356
8.635000000000000 0.0252217412854 -0.904494171395 0.9996785607549 -79.35908744300 0.9996785607549 -79.35908744300 0.0252227115473 22.196655660497
8.635200000000001 0.0252208881396 -0.907254052105 0.9996785819854 -79.36099220600 0.9996785819854 -79.36099220600 0.0252218585624 22.195607341475
8.635400000000001 0.0252200326545 -0.910015229321 0.9996786032734 -79.36289710516 0.9996786032734 -79.36289710516 0.0252210032386 22.194560051163
8.635600000000000 0.0252191748229 -0.912777707899 0.9996786246194 -79.36480214090 0.9996786246194 -79.36480214090 0.0252201455687 22.193513792538
8.635800000000000 0.0252183146381 -0.915541491198 0.9996786460232 -79.36670731362 0.9996786460232 -79.36670731362 0.0252192855460 22.192468569380
8.636000000000001 0.0252174520922 -0.918306584168 0.9996786674852 -79.36861262378 0.9996786674852 -79.36861262378 0.0252184231626 22.191424384971
8.636200000000001 0.0252165871789 -0.921072990425 0.9996786890055 -79.37051807175 0.9996786890055 -79.37051807175 0.0252175584123 22.190381242414
8.636400000000000 0.0252157198901 -0.923840714789 0.9996787105842 -79.37242365801 0.9996787105842 -79.37242365801 0.0252166912868 22.189339145556
8.636600000000001 0.0252148502196 -0.926609760968 0.9996787322216 -79.37432938293 0.9996787322216 -79.37432938293 0.0252158217799 22.188298097335
8.636800000000001 0.0252139781595 -0.929380133322 0.9996787539178 -79.37623524696 0.9996787539178 -79.37623524696 0.0252149498840 22.187258101450
8.637000000000000 0.0252131037026 -0.932151836326 0.9996787756730 -79.37814125053 0.9996787756730 -79.37814125053 0.0252140755916 22.186219161419
8.637200000000000 0.0252122268419 -0.934924874226 0.9996787974875 -79.38004739405 0.9996787974875 -79.38004739405 0.0252131988958 22.185181280324
8.637400000000001 0.0252113475696 -0.937699251302 0.9996788193612 -79.38195367798 0.9996788193612 -79.38195367798 0.0252123197889 22.184144462052
8.637600000000001 0.0252104658794 -0.940474971467 0.9996788412944 -79.38386010269 0.9996788412944 -79.38386010269 0.0252114382644 22.183108709624
8.637800000000000 0.0252095817628 -0.943252039727 0.9996788632874 -79.38576666868 0.9996788632874 -79.38576666868 0.0252105543139 22.182074026959
8.638000000000000 0.0252086952130 -0.946030459836 0.9996788853401 -79.38767337635 0.9996788853401 -79.38767337635 0.0252096679308 22.181040417375
8.638200000000001 0.0252078062225 -0.948810236594 0.9996789074530 -79.38958022613 0.9996789074530 -79.38958022613 0.0252087791073 22.180007884247
8.638400000000001 0.0252069147836 -0.951591374306 0.9996789296261 -79.39148721850 0.9996789296261 -79.39148721850 0.0252078878357 22.178976431429
8.638600000000000 0.0252060208887 -0.954373877580 0.9996789518596 -79.39339435388 0.9996789518596 -79.39339435388 0.0252069941086 22.177946062383
8.638800000000000 0.0252051245313 -0.957157750106 0.9996789741536 -79.39530163265 0.9996789741536 -79.39530163265 0.0252060979195 22.176916780332
8.639000000000001 0.0252042257022 -0.959942997285 0.9996789965084 -79.39720905537 0.9996789965084 -79.39720905537 0.0252051992592 22.175888589551
8.639200000000001 0.0252033243957 -0.962729622848 0.9996790189242 -79.39911662237 0.9996790189242 -79.39911662237 0.0252042981217 22.174861492762
8.639400000000000 0.0252024206023 -0.965517631921 0.9996790414011 -79.40102433420 0.9996790414011 -79.40102433420 0.0252033944978 22.173835494494
8.639600000000000 0.0252015143150 -0.968307029005 0.9996790639394 -79.40293219127 0.9996790639394 -79.40293219127 0.0252024883805 22.172810597868
8.639800000000001 0.0252006055265 -0.971097818165 0.9996790865392 -79.40484019402 0.9996790865392 -79.40484019402 0.0252015797625 22.171786806642
8.640000000000001 0.0251996942291 -0.973890004042 0.9996791092006 -79.40674834290 0.9996791092006 -79.40674834290 0.0252006686359 22.170764124462
8.640200000000000 0.0251987804144 -0.976683591552 0.9996791319238 -79.40865663840 0.9996791319238 -79.40865663840 0.0251997549924 22.169742555279