! Sonnet Data File
! From: emgraph Version : 16.52
! From Project: 171117_Xmon_fullysym
! Data is De-embedded 
! Data File Written: 11/26/2017 17:14:23
!< HDATE 11/22/2017 16:48:52
!< MDATE 11/23/2017 10:16:42
!< PARAMS
!< Lj = 11.0
!< Gap = 1.0
!< Pwid = 2000.0
!< Airgap = 6.0
!< Width = 10.0
!< Lj1 = 10.4
!< END PARAMS
# GHZ S MA R 50.90000
8.680000000000000 0.0251078108405 -1.496085121274 0.9996813554787 -79.78312321452 0.9996813554772 -79.78312321440 0.0251088210534 21.940481334718
!< P1 F=8.68 Eeff=(6.44843488 -2.9797e-5) Z0=(50.9086135 1.17022e-4) R=0.0 C=0.0 
!< P2 F=8.68 Eeff=(6.44843488 -2.9797e-5) Z0=(50.9086135 1.17022e-4) R=0.0 C=0.0 
8.680100000000001 0.0251070931056 -1.497638290619 0.9996813730905 -79.78409263115 0.9996813730905 -79.78409263115 0.0251081034611 21.940096820961
8.680200000000001 0.0251063741350 -1.499192174208 0.9996813907319 -79.78506212017 0.9996813907319 -79.78506212017 0.0251073846350 21.939712887407
8.680300000000001 0.0251056539222 -1.500746781259 0.9996814084036 -79.78603168187 0.9996814084036 -79.78603168187 0.0251066645672 21.939329536538
8.680400000000001 0.0251049324644 -1.502302114440 0.9996814261060 -79.78700131644 0.9996814261060 -79.78700131644 0.0251059432546 21.938946769106
8.680500000000000 0.0251042097578 -1.503858175497 0.9996814438390 -79.78797102408 0.9996814438390 -79.78797102408 0.0251052206936 21.938564587226
8.680600000000000 0.0251034857998 -1.505414965877 0.9996814616025 -79.78894080496 0.9996814616025 -79.78894080496 0.0251044968816 21.938182992516
8.680700000000000 0.0251027605884 -1.506972487474 0.9996814793969 -79.78991065920 0.9996814793969 -79.78991065920 0.0251037718164 21.937801985373
8.680800000000001 0.0251020341200 -1.508530741855 0.9996814972220 -79.79088058700 0.9996814972220 -79.79088058700 0.0251030454946 21.937421568190
8.680900000000001 0.0251013063918 -1.510089730890 0.9996815150779 -79.79185058852 0.9996815150779 -79.79185058852 0.0251023179134 21.937041742059
8.681000000000001 0.0251005774019 -1.511649455793 0.9996815329647 -79.79282066388 0.9996815329647 -79.79282066388 0.0251015890708 21.936662508162
8.681100000000001 0.0250998471472 -1.513209918639 0.9996815508825 -79.79379081327 0.9996815508825 -79.79379081327 0.0251008589638 21.936283867737
8.681200000000000 0.0250991156228 -1.514771122261 0.9996815688314 -79.79476103698 0.9996815688314 -79.79476103698 0.0251001275873 21.935905823356
8.681300000000000 0.0250983828280 -1.516333067045 0.9996815868114 -79.79573133503 0.9996815868114 -79.79573133503 0.0250993949409 21.935528375427
8.681400000000000 0.0250976487588 -1.517895755771 0.9996816048227 -79.79670170767 0.9996816048227 -79.79670170767 0.0250986610205 21.935151525619
8.681500000000000 0.0250969134113 -1.519459190289 0.9996816228652 -79.79767215513 0.9996816228652 -79.79767215513 0.0250979258220 21.934775276338
8.681600000000001 0.0250961767854 -1.521023370956 0.9996816409389 -79.79864267741 0.9996816409389 -79.79864267741 0.0250971893456 21.934399627577
8.681700000000001 0.0250954388752 -1.522588301610 0.9996816590442 -79.79961327487 0.9996816590442 -79.79961327487 0.0250964515851 21.934024581881
8.681800000000001 0.0250946996806 -1.524153982123 0.9996816771809 -79.80058394750 0.9996816771809 -79.80058394750 0.0250957125406 21.933650139715
8.681900000000001 0.0250939591953 -1.525720415996 0.9996816953491 -79.80155469568 0.9996816953491 -79.80155469568 0.0250949722057 21.933276304176
8.682000000000000 0.0250932174179 -1.527287604842 0.9996817135491 -79.80252551949 0.9996817135491 -79.80252551949 0.0250942305792 21.932903075377
8.682100000000000 0.0250924743462 -1.528855549048 0.9996817317804 -79.80349641906 0.9996817317804 -79.80349641906 0.0250934876587 21.932530455658
8.682200000000000 0.0250917299764 -1.530424251758 0.9996817500437 -79.80446739461 0.9996817500437 -79.80446739461 0.0250927434404 21.932158445781
8.682300000000000 0.0250909843055 -1.531993714617 0.9996817683388 -79.80543844633 0.9996817683388 -79.80543844633 0.0250919979214 21.931787047598
8.682400000000001 0.0250902373305 -1.533563939313 0.9996817866658 -79.80640957438 0.9996817866658 -79.80640957438 0.0250912510987 21.931416262700
8.682500000000001 0.0250894890481 -1.535134928004 0.9996818050247 -79.80738077896 0.9996818050247 -79.80738077896 0.0250905029689 21.931046092672
8.682600000000001 0.0250887394558 -1.536706682037 0.9996818234156 -79.80835206022 0.9996818234156 -79.80835206022 0.0250897535296 21.930676538917
8.682700000000001 0.0250879885505 -1.538279203678 0.9996818418387 -79.80932341835 0.9996818418387 -79.80932341835 0.0250890027777 21.930307602614
8.682800000000000 0.0250872363277 -1.539852495330 0.9996818602940 -79.81029485359 0.9996818602940 -79.81029485359 0.0250882507086 21.929939286252
8.682900000000000 0.0250864827878 -1.541426557022 0.9996818787815 -79.81126636595 0.9996818787815 -79.81126636595 0.0250874973228 21.929571589811
8.683000000000000 0.0250857279235 -1.543001393195 0.9996818973014 -79.81223795583 0.9996818973014 -79.81223795583 0.0250867426129 21.929204516399
8.683100000000001 0.0250849717338 -1.544577004129 0.9996819158536 -79.81320962330 0.9996819158536 -79.81320962330 0.0250859865780 21.928838067166
8.683200000000001 0.0250842142160 -1.546153391852 0.9996819344383 -79.81418136853 0.9996819344383 -79.81418136853 0.0250852292155 21.928472243060
8.683300000000001 0.0250834553655 -1.547730559147 0.9996819530556 -79.81515319178 0.9996819530556 -79.81515319178 0.0250844705205 21.928107046431
8.683400000000001 0.0250826951797 -1.549308507467 0.9996819717055 -79.81612509319 0.9996819717055 -79.81612509319 0.0250837104906 21.927742478618
8.683500000000000 0.0250819336558 -1.550887238661 0.9996819903881 -79.81709707295 0.9996819903881 -79.81709707295 0.0250829491230 21.927378540945
8.683600000000000 0.0250811707929 -1.552466753270 0.9996820091034 -79.81806913111 0.9996820091034 -79.81806913111 0.0250821864168 21.927015234324
8.683700000000000 0.0250804065824 -1.554047056453 0.9996820278516 -79.81904126815 0.9996820278516 -79.81904126815 0.0250814223633 21.926652562336
8.683800000000000 0.0250796410261 -1.555628147394 0.9996820466327 -79.82001348400 0.9996820466327 -79.82001348400 0.0250806569644 21.926290524497
8.683900000000001 0.0250788741181 -1.557210029145 0.9996820654467 -79.82098577898 0.9996820654467 -79.82098577898 0.0250798902142 21.925929123943
8.684000000000001 0.0250781058577 -1.558792702792 0.9996820842938 -79.82195815314 0.9996820842938 -79.82195815314 0.0250791221120 21.925568360723
8.684100000000001 0.0250773362380 -1.560376172453 0.9996821031742 -79.82293060689 0.9996821031742 -79.82293060689 0.0250783526508 21.925208237976
8.684200000000001 0.0250765652598 -1.561960437235 0.9996821220876 -79.82390314018 0.9996821220876 -79.82390314018 0.0250775818316 21.924848756172
8.684300000000000 0.0250757929163 -1.563545501701 0.9996821410344 -79.82487575341 0.9996821410344 -79.82487575341 0.0250768096474 21.924489917962
8.684400000000000 0.0250750192070 -1.565131366117 0.9996821600145 -79.82584844661 0.9996821600145 -79.82584844661 0.0250760360978 21.924131723888
8.684500000000000 0.0250742441266 -1.566718033403 0.9996821790280 -79.82682122009 0.9996821790280 -79.82682122009 0.0250752611775 21.923774176724
8.684600000000000 0.0250734676730 -1.568305505250 0.9996821980751 -79.82779407398 0.9996821980751 -79.82779407398 0.0250744848844 21.923417277301
8.684700000000001 0.0250726898431 -1.569893783473 0.9996822171558 -79.82876700846 0.9996822171558 -79.82876700846 0.0250737072153 21.923061027293
8.684800000000001 0.0250719106325 -1.571482870927 0.9996822362702 -79.82974002378 0.9996822362702 -79.82974002378 0.0250729281659 21.922705428687
8.684900000000001 0.0250711300392 -1.573072768586 0.9996822554183 -79.83071312008 0.9996822554183 -79.83071312008 0.0250721477341 21.922350482843
8.685000000000000 0.0250703480589 -1.574663479192 0.9996822746002 -79.83168629758 0.9996822746002 -79.83168629758 0.0250713659159 21.921996191606
8.685100000000000 0.0250695646888 -1.576255004347 0.9996822938160 -79.83265955647 0.9996822938160 -79.83265955647 0.0250705827081 21.921642556671
8.685200000000000 0.0250687799250 -1.577847346420 0.9996823130658 -79.83363289698 0.9996823130658 -79.83363289698 0.0250697981072 21.921289579916
8.685300000000000 0.0250679937667 -1.579440506539 0.9996823323497 -79.83460631914 0.9996823323497 -79.83460631914 0.0250690121120 21.920937261526
8.685400000000001 0.0250672062058 -1.581034488958 0.9996823516677 -79.83557982345 0.9996823516677 -79.83557982345 0.0250682247146 21.920585605656
8.685500000000001 0.0250664172423 -1.582629294084 0.9996823710200 -79.83655340988 0.9996823710200 -79.83655340988 0.0250674359151 21.920234612255
8.685600000000001 0.0250656268728 -1.584224923393 0.9996823904063 -79.83752707866 0.9996823904063 -79.83752707866 0.0250666457100 21.919884283631
8.685700000000001 0.0250648350932 -1.585821380267 0.9996824098272 -79.83850083001 0.9996824098272 -79.83850083001 0.0250658540952 21.919534621117
8.685800000000000 0.0250640419002 -1.587418666525 0.9996824292826 -79.83947466414 0.9996824292826 -79.83947466414 0.0250650610673 21.919185626427
8.685900000000000 0.0250632472895 -1.589016784401 0.9996824487724 -79.84044858129 0.9996824487724 -79.84044858129 0.0250642666221 21.918837302050
8.686000000000000 0.0250624512594 -1.590615735340 0.9996824682969 -79.84142258157 0.9996824682969 -79.84142258157 0.0250634707579 21.918489648693
8.686100000000000 0.0250616538052 -1.592215522021 0.9996824878561 -79.84239666526 0.9996824878561 -79.84239666526 0.0250626734701 21.918142668721
8.686200000000001 0.0250608549238 -1.593816146561 0.9996825074500 -79.84337083253 0.9996825074500 -79.84337083253 0.0250618747554 21.917796363637
8.686300000000001 0.0250600546110 -1.595417611313 0.9996825270788 -79.84434508363 0.9996825270788 -79.84434508363 0.0250610746098 21.917450735551
8.686400000000001 0.0250592528661 -1.597019917002 0.9996825467426 -79.84531941860 0.9996825467426 -79.84531941860 0.0250602730324 21.917105784985
8.686500000000001 0.0250584496808 -1.598623068095 0.9996825664412 -79.84629383794 0.9996825664412 -79.84629383794 0.0250594700151 21.916761516130
8.686600000000000 0.0250576450566 -1.600227064763 0.9996825861751 -79.84726834156 0.9996825861751 -79.84726834156 0.0250586655592 21.916417927914
8.686700000000000 0.0250568389875 -1.601831909804 0.9996826059441 -79.84824292979 0.9996826059441 -79.84824292979 0.0250578596589 21.916075023588
8.686800000000000 0.0250560314692 -1.603437605890 0.9996826257483 -79.84921760291 0.9996826257483 -79.84921760291 0.0250570523099 21.915732805547
8.686900000000001 0.0250552225004 -1.605044154744 0.9996826455880 -79.85019236099 0.9996826455880 -79.85019236099 0.0250562435106 21.915391273689
8.687000000000001 0.0250544120768 -1.606651558111 0.9996826654630 -79.85116720429 0.9996826654630 -79.85116720429 0.0250554332569 21.915050431044
8.687100000000001 0.0250536001934 -1.608259819466 0.9996826853736 -79.85214213309 0.9996826853736 -79.85214213309 0.0250546215439 21.914710279423
8.687200000000001 0.0250527868481 -1.609868939718 0.9996827053197 -79.85311714751 0.9996827053197 -79.85311714751 0.0250538083694 21.914370820585
8.687300000000000 0.0250519720372 -1.611478921562 0.9996827253015 -79.85409224778 0.9996827253015 -79.85409224778 0.0250529937298 21.914032055814
8.687400000000000 0.0250511557563 -1.613089767682 0.9996827453191 -79.85506743416 0.9996827453191 -79.85506743416 0.0250521776206 21.913693987479
8.687500000000000 0.0250503380033 -1.614701478967 0.9996827653723 -79.85604270677 0.9996827653723 -79.85604270677 0.0250513600397 21.913356617069
8.687600000000000 0.0250495187736 -1.616314059229 0.9996827854618 -79.85701806588 0.9996827854618 -79.85701806588 0.0250505409824 21.913019945978
8.687700000000001 0.0250486980629 -1.617927510065 0.9996828055871 -79.85799351174 0.9996828055871 -79.85799351174 0.0250497204446 21.912683977211
8.687800000000001 0.0250478758685 -1.619541833442 0.9996828257485 -79.85896904452 0.9996828257485 -79.85896904452 0.0250488984235 21.912348711968
8.687900000000001 0.0250470521868 -1.621157032100 0.9996828459462 -79.85994466442 0.9996828459462 -79.85994466442 0.0250480749156 21.912014151601
8.688000000000001 0.0250462270148 -1.622773107404 0.9996828661801 -79.86092037162 0.9996828661801 -79.86092037162 0.0250472499177 21.911680298173
8.688100000000000 0.0250454003465 -1.624390062954 0.9996828864503 -79.86189616647 0.9996828864503 -79.86189616647 0.0250464234241 21.911347154454
8.688200000000000 0.0250445721799 -1.626007900310 0.9996829067570 -79.86287204911 0.9996829067570 -79.86287204911 0.0250455954324 21.911014721575
8.688300000000000 0.0250437425103 -1.627626622265 0.9996829271002 -79.86384801978 0.9996829271002 -79.86384801978 0.0250447659383 21.910683001618
8.688400000000000 0.0250429113362 -1.629246229861 0.9996829474800 -79.86482407860 0.9996829474800 -79.86482407860 0.0250439349401 21.910351995780
8.688500000000001 0.0250420786520 -1.630866726438 0.9996829678965 -79.86580022589 0.9996829678965 -79.86580022589 0.0250431024321 21.910021706573
8.688600000000001 0.0250412444545 -1.632488113633 0.9996829883497 -79.86677646182 0.9996829883497 -79.86677646182 0.0250422684115 21.909692135935
8.688700000000001 0.0250404087384 -1.634110395333 0.9996830088399 -79.86775278673 0.9996830088399 -79.86775278673 0.0250414328725 21.909363286075
8.688800000000001 0.0250395715029 -1.635733571878 0.9996830293670 -79.86872920066 0.9996830293670 -79.86872920066 0.0250405958146 21.909035157707
8.688900000000000 0.0250387327413 -1.637357647245 0.9996830499311 -79.86970570399 0.9996830499311 -79.86970570399 0.0250397572311 21.908707754104
8.689000000000000 0.0250378924525 -1.638982622523 0.9996830705325 -79.87068229680 0.9996830705325 -79.87068229680 0.0250389171207 21.908381075647
8.689100000000000 0.0250370506302 -1.640608500921 0.9996830911710 -79.87165897945 0.9996830911710 -79.87165897945 0.0250380754774 21.908055125960
8.689200000000001 0.0250362072724 -1.642235284264 0.9996831118469 -79.87263575207 0.9996831118469 -79.87263575207 0.0250372322989 21.907729905791
8.689300000000001 0.0250353623749 -1.643862974826 0.9996831325600 -79.87361261490 0.9996831325600 -79.87361261490 0.0250363875812 21.907405417449
8.689400000000001 0.0250345159326 -1.645491575994 0.9996831533108 -79.87458956824 0.9996831533108 -79.87458956824 0.0250355413191 21.907081663083
8.689500000000001 0.0250336679435 -1.647121088877 0.9996831740991 -79.87556661220 0.9996831740991 -79.87556661220 0.0250346935107 21.906758644084
8.689600000000000 0.0250328184019 -1.648751516783 0.9996831949250 -79.87654374714 0.9996831949250 -79.87654374714 0.0250338441502 21.906436363503
8.689700000000000 0.0250319673065 -1.650382861346 0.9996832157889 -79.87752097311 0.9996832157889 -79.87752097311 0.0250329932364 21.906114821259
8.689800000000000 0.0250311146507 -1.652015125896 0.9996832366905 -79.87849829052 0.9996832366905 -79.87849829052 0.0250321407625 21.905794021363
8.689900000000000 0.0250302604317 -1.653648312242 0.9996832576301 -79.87947569952 0.9996832576301 -79.87947569952 0.0250312867261 21.905473964996
8.690000000000001 0.0250294046459 -1.655282422784 0.9996832786076 -79.88045320032 0.9996832786076 -79.88045320032 0.0250304311232 21.905154654123
8.690100000000001 0.0250285472885 -1.656917460307 0.9996832996233 -79.88143079322 0.9996832996233 -79.88143079322 0.0250295739492 21.904836091116
8.690200000000001 0.0250276883555 -1.658553427683 0.9996833206773 -79.88240847844 0.9996833206773 -79.88240847844 0.0250287151999 21.904518277732
8.690300000000001 0.0250268278435 -1.660190326426 0.9996833417694 -79.88338625618 0.9996833417694 -79.88338625618 0.0250278548722 21.904201216174
8.690400000000000 0.0250259657486 -1.661828159535 0.9996833629001 -79.88436412668 0.9996833629001 -79.88436412668 0.0250269929621 21.903884907991
8.690500000000000 0.0250251020679 -1.663466928754 0.9996833840692 -79.88534209011 0.9996833840692 -79.88534209011 0.0250261294666 21.903569354795
8.690600000000000 0.0250242367954 -1.665106637383 0.9996834052769 -79.88632014681 0.9996834052769 -79.88632014681 0.0250252643797 21.903254559783
8.690700000000001 0.0250233699274 -1.666747287998 0.9996834265233 -79.88729829702 0.9996834265233 -79.88729829702 0.0250243976978 21.902940524722
8.690800000000001 0.0250225014590 -1.668388883917 0.9996834478086 -79.88827654101 0.9996834478086 -79.88827654101 0.0250235294159 21.902627251597
8.690900000000001 0.0250216313898 -1.670031424776 0.9996834691326 -79.88925487880 0.9996834691326 -79.88925487880 0.0250226595338 21.902314741600
8.691000000000001 0.0250207597132 -1.671674915335 0.9996834904956 -79.89023331081 0.9996834904956 -79.89023331081 0.0250217880446 21.902002997353
8.691100000000000 0.0250198864244 -1.673319358164 0.9996835118978 -79.89121183728 0.9996835118978 -79.89121183728 0.0250209149437 21.901692021424
8.691200000000000 0.0250190115206 -1.674964754944 0.9996835333390 -79.89219045840 0.9996835333390 -79.89219045840 0.0250200402284 21.901381815386
8.691300000000000 0.0250181349971 -1.676611108804 0.9996835548195 -79.89316917445 0.9996835548195 -79.89316917445 0.0250191638938 21.901072381542
8.691400000000000 0.0250172568496 -1.678258422082 0.9996835763393 -79.89414798567 0.9996835763393 -79.89414798567 0.0250182859357 21.900763722223
8.691500000000001 0.0250163770759 -1.679906696974 0.9996835978987 -79.89512689220 0.9996835978987 -79.89512689220 0.0250174063518 21.900455838129
8.691600000000001 0.0250154956678 -1.681555937540 0.9996836194975 -79.89610589451 0.9996836194975 -79.89610589451 0.0250165251340 21.900148733862
8.691700000000001 0.0250146126251 -1.683206144451 0.9996836411359 -79.89708499263 0.9996836411359 -79.89708499263 0.0250156422821 21.899842409424
8.691800000000001 0.0250137279421 -1.684857321346 0.9996836628142 -79.89806418688 0.9996836628142 -79.89806418688 0.0250147577903 21.899536867450
8.691900000000000 0.0250128416141 -1.686509470860 0.9996836845322 -79.89904347754 0.9996836845322 -79.89904347754 0.0250138716541 21.899232110642
8.692000000000000 0.0250119536373 -1.688162595314 0.9996837062901 -79.90002286484 0.9996837062901 -79.90002286484 0.0250129838695 21.898928140895
8.692100000000000 0.0250110640083 -1.689816697263 0.9996837280881 -79.90100234897 0.9996837280881 -79.90100234897 0.0250120944332 21.898624959713
8.692200000000000 0.0250101727220 -1.691471779632 0.9996837499262 -79.90198193025 0.9996837499262 -79.90198193025 0.0250112033400 21.898322569830
8.692300000000001 0.0250092797726 -1.693127845859 0.9996837718046 -79.90296160900 0.9996837718046 -79.90296160900 0.0250103105843 21.898020974081
8.692400000000001 0.0250083851594 -1.694784896858 0.9996837937233 -79.90394138527 0.9996837937233 -79.90394138527 0.0250094161652 21.897720172881
8.692500000000001 0.0250074888753 -1.696442936365 0.9996838156824 -79.90492125948 0.9996838156824 -79.90492125948 0.0250085200758 21.897420170026
8.692600000000001 0.0250065909169 -1.698101966928 0.9996838376821 -79.90590123183 0.9996838376821 -79.90590123183 0.0250076223125 21.897120967079
8.692700000000000 0.0250056912808 -1.699761990736 0.9996838597223 -79.90688130252 0.9996838597223 -79.90688130252 0.0250067228720 21.896822565863
8.692800000000000 0.0250047899604 -1.701423011515 0.9996838818033 -79.90786147193 0.9996838818033 -79.90786147193 0.0250058217478 21.896524969592
8.692900000000000 0.0250038869523 -1.703085031639 0.9996839039251 -79.90884174027 0.9996839039251 -79.90884174027 0.0250049189362 21.896228180115
8.693000000000001 0.0250029822540 -1.704748052921 0.9996839260878 -79.90982210769 0.9996839260878 -79.90982210769 0.0250040144350 21.895932198583
8.693100000000001 0.0250020758591 -1.706412079026 0.9996839482916 -79.91080257456 0.9996839482916 -79.91080257456 0.0250031082376 21.895637028345
8.693200000000001 0.0250011677629 -1.708077112884 0.9996839705365 -79.91178314116 0.9996839705365 -79.91178314116 0.0250022003395 21.895342671675
8.693300000000001 0.0250002579633 -1.709743155790 0.9996839928226 -79.91276380760 0.9996839928226 -79.91276380760 0.0250012907386 21.895049129949
8.693400000000000 0.0249993464530 -1.711410212514 0.9996840151502 -79.91374457434 0.9996840151502 -79.91374457434 0.0250003794273 21.894756406445
8.693500000000000 0.0249984332289 -1.713078284573 0.9996840375190 -79.91472544154 0.9996840375190 -79.91472544154 0.0249994664028 21.894464503274
8.693600000000000 0.0249975182866 -1.714747375218 0.9996840599295 -79.91570640946 0.9996840599295 -79.91570640946 0.0249985516606 21.894173422116
8.693700000000000 0.0249966016223 -1.716417486377 0.9996840823816 -79.91668747833 0.9996840823816 -79.91668747833 0.0249976351969 21.893883165378
8.693800000000001 0.0249956832306 -1.718088621949 0.9996841048755 -79.91766864847 0.9996841048755 -79.91766864847 0.0249967170063 21.893593735466
8.693900000000001 0.0249947631064 -1.719760784490 0.9996841274112 -79.91864992017 0.9996841274112 -79.91864992017 0.0249957970837 21.893305135194
8.694000000000001 0.0249938412462 -1.721433976525 0.9996841499889 -79.91963129364 0.9996841499889 -79.91963129364 0.0249948754256 21.893017366276
8.694100000000001 0.0249929176441 -1.723108201683 0.9996841726087 -79.92061276923 0.9996841726087 -79.92061276923 0.0249939520262 21.892730431534
8.694200000000000 0.0249919922988 -1.724783461001 0.9996841952706 -79.92159434703 0.9996841952706 -79.92159434703 0.0249930268840 21.892444332019
8.694300000000000 0.0249910652018 -1.726459759482 0.9996842179748 -79.92257602752 0.9996842179749 -79.92257602752 0.0249920999906 21.892159071700
8.694400000000000 0.0249901363504 -1.728137098478 0.9996842407213 -79.92355781086 0.9996842407213 -79.92355781086 0.0249911713435 21.891874652472
8.694500000000000 0.0249892057400 -1.729815481879 0.9996842635105 -79.92453969734 0.9996842635105 -79.92453969734 0.0249902409378 21.891591075859
8.694600000000001 0.0249882733660 -1.731494911777 0.9996842863422 -79.92552168721 0.9996842863422 -79.92552168721 0.0249893087690 21.891308344866
8.694700000000001 0.0249873392229 -1.733175391740 0.9996843092166 -79.92650378081 0.9996843092166 -79.92650378081 0.0249883748316 21.891026462104
8.694800000000001 0.0249864033080 -1.734856923551 0.9996843321338 -79.92748597828 0.9996843321338 -79.92748597828 0.0249874391230 21.890745429084
8.694900000000001 0.0249854656135 -1.736539511807 0.9996843550939 -79.92846828009 0.9996843550939 -79.92846828009 0.0249865016354 21.890465249558
8.695000000000000 0.0249845261369 -1.738223158594 0.9996843780971 -79.92945068640 0.9996843780971 -79.92945068640 0.0249855623660 21.890185924873
8.695100000000000 0.0249835848729 -1.739907866955 0.9996844011435 -79.93043319751 0.9996844011435 -79.93043319751 0.0249846213099 21.889907457637
8.695200000000000 0.0249826418185 -1.741593638643 0.9996844242331 -79.93141581359 0.9996844242331 -79.93141581359 0.0249836784639 21.889629849854
8.695300000000001 0.0249816969653 -1.743280479081 0.9996844473661 -79.93239853515 0.9996844473661 -79.93239853515 0.0249827338195 21.889353105206
8.695400000000001 0.0249807503119 -1.744968389033 0.9996844705425 -79.93338136225 0.9996844705425 -79.93338136225 0.0249817873757 21.889077224780
8.695500000000001 0.0249798018499 -1.746657373343 0.9996844937624 -79.93436429541 0.9996844937624 -79.93436429541 0.0249808391237 21.888802213018
8.695600000000001 0.0249788515792 -1.748347433006 0.9996845170260 -79.93534733462 0.9996845170260 -79.93534733462 0.0249798890635 21.888528069535
8.695700000000000 0.0249778994914 -1.750038573072 0.9996845403337 -79.93633048039 0.9996845403337 -79.93633048039 0.0249789371867 21.888254798499
8.695800000000000 0.0249769455835 -1.751730794722 0.9996845636851 -79.93731373288 0.9996845636851 -79.93731373288 0.0249779834905 21.887982402132
8.695900000000000 0.0249759898493 -1.753424102261 0.9996845870805 -79.93829709246 0.9996845870805 -79.93829709246 0.0249770279684 21.887710883258
8.696000000000000 0.0249750322844 -1.755118498651 0.9996846105202 -79.93928055939 0.9996846105202 -79.93928055939 0.0249760706162 21.887440243892
8.696100000000001 0.0249740728845 -1.756813986369 0.9996846340041 -79.94026413393 0.9996846340041 -79.94026413393 0.0249751114295 21.887170486480
8.696200000000001 0.0249731116430 -1.758510569081 0.9996846575322 -79.94124781646 0.9996846575322 -79.94124781646 0.0249741504019 21.886901614638
8.696300000000001 0.0249721485572 -1.760208249458 0.9996846811050 -79.94223160714 0.9996846811050 -79.94223160714 0.0249731875304 21.886633629190
8.696400000000001 0.0249711836205 -1.761907030602 0.9996847047222 -79.94321550636 0.9996847047222 -79.94321550636 0.0249722228087 21.886366534135
8.696500000000000 0.0249702168303 -1.763606915412 0.9996847283844 -79.94419951428 0.9996847283844 -79.94419951428 0.0249712562339 21.886100330093
8.696600000000000 0.0249692481780 -1.765307908046 0.9996847520913 -79.94518363140 0.9996847520913 -79.94518363140 0.0249702877977 21.885835022017
8.696700000000000 0.0249682776601 -1.767010010931 0.9996847758430 -79.94616785793 0.9996847758430 -79.94616785793 0.0249693174964 21.885570611772
8.696800000000001 0.0249673052736 -1.768713226857 0.9996847996400 -79.94715219404 0.9996847996400 -79.94715219404 0.0249683453270 21.885307100253
8.696900000000001 0.0249663310109 -1.770417559628 0.9996848234821 -79.94813664018 0.9996848234821 -79.94813664018 0.0249673712820 21.885044491902
8.697000000000001 0.0249653548679 -1.772123011758 0.9996848473693 -79.94912119659 0.9996848473693 -79.94912119659 0.0249663953573 21.884782789022
8.697100000000001 0.0249643768395 -1.773829587411 0.9996848713022 -79.95010586358 0.9996848713022 -79.95010586358 0.0249654175477 21.884521993417
8.697200000000000 0.0249633969197 -1.775537289109 0.9996848952805 -79.95109064149 0.9996848952805 -79.95109064149 0.0249644378474 21.884262108953
8.697300000000000 0.0249624151052 -1.777246119775 0.9996849193044 -79.95207553053 0.9996849193044 -79.95207553053 0.0249634562528 21.884003137104
8.697400000000000 0.0249614313889 -1.778956083769 0.9996849433742 -79.95306053111 0.9996849433742 -79.95306053111 0.0249624727571 21.883745081057
8.697500000000000 0.0249604457672 -1.780667183471 0.9996849674899 -79.95404564344 0.9996849674899 -79.95404564344 0.0249614873564 21.883487942970
8.697600000000001 0.0249594582347 -1.782379421350 0.9996849916514 -79.95503086783 0.9996849916514 -79.95503086783 0.0249605000457 21.883231726230
8.697700000000001 0.0249584687849 -1.784092802502 0.9996850158592 -79.95601620469 0.9996850158592 -79.95601620469 0.0249595108181 21.882976433244
8.697800000000001 0.0249574774141 -1.785807328993 0.9996850401133 -79.95700165421 0.9996850401133 -79.95700165421 0.0249585196702 21.882722066245
8.697900000000001 0.0249564841168 -1.787523003796 0.9996850644135 -79.95798721672 0.9996850644135 -79.95798721672 0.0249575265964 21.882468628380
8.698000000000000 0.0249554888867 -1.789239831693 0.9996850887605 -79.95897289260 0.9996850887605 -79.95897289260 0.0249565315903 21.882216122239
8.698100000000000 0.0249544917185 -1.790957815397 0.9996851131540 -79.95995868217 0.9996851131540 -79.95995868217 0.0249555346467 21.881964551048
8.698200000000000 0.0249534926071 -1.792676958038 0.9996851375943 -79.96094458570 0.9996851375943 -79.96094458570 0.0249545357605 21.881713917275
8.698300000000000 0.0249524915481 -1.794397263041 0.9996851620815 -79.96193060348 0.9996851620815 -79.96193060348 0.0249535349273 21.881464222923
8.698400000000001 0.0249514885362 -1.796118732715 0.9996851866154 -79.96291673581 0.9996851866154 -79.96291673581 0.0249525321418 21.881215471663
8.698500000000001 0.0249504835667 -1.797841371020 0.9996852111966 -79.96390298296 0.9996852111966 -79.96390298296 0.0249515273994 21.880967664886
8.698600000000001 0.0249494766320 -1.799565182551 0.9996852358251 -79.96488934539 0.9996852358251 -79.96488934539 0.0249505206922 21.880720806582
8.698700000000001 0.0249484677273 -1.801290169873 0.9996852605009 -79.96587582338 0.9996852605009 -79.96587582338 0.0249495120156 21.880474899726
8.698800000000000 0.0249474568473 -1.803016336089 0.9996852852240 -79.96686241723 0.9996852852240 -79.96686241723 0.0249485013645 21.880229947024
8.698900000000000 0.0249464439880 -1.804743684822 0.9996853099950 -79.96784912720 0.9996853099950 -79.96784912720 0.0249474887346 21.879985949956
8.699000000000000 0.0249454291421 -1.806472219601 0.9996853348135 -79.96883595369 0.9996853348135 -79.96883595369 0.0249464741187 21.879742912950
8.699100000000001 0.0249444123051 -1.808201943995 0.9996853596800 -79.96982289699 0.9996853596800 -79.96982289699 0.0249454575122 21.879500837683
8.699200000000001 0.0249433934703 -1.809932861540 0.9996853845944 -79.97080995749 0.9996853845944 -79.97080995749 0.0249444389086 21.879259728191
8.699300000000001 0.0249423726334 -1.811664975364 0.9996854095570 -79.97179713543 0.9996854095570 -79.97179713543 0.0249434183036 21.879019586375
8.699400000000001 0.0249413497900 -1.813398288215 0.9996854345677 -79.97278443108 0.9996854345677 -79.97278443108 0.0249423956927 21.878780414642
8.699500000000000 0.0249403249308 -1.815132806013 0.9996854596270 -79.97377184499 0.9996854596270 -79.97377184499 0.0249413710665 21.878542217427
8.699600000000000 0.0249392980534 -1.816868530002 0.9996854847347 -79.97475937729 0.9996854847347 -79.97475937729 0.0249403444228 21.878304996370
8.699700000000000 0.0249382691504 -1.818605465077 0.9996855098911 -79.97574702843 0.9996855098911 -79.97574702843 0.0249393157541 21.878068755107
8.699800000000000 0.0249372382186 -1.820343612902 0.9996855350960 -79.97673479859 0.9996855350960 -79.97673479859 0.0249382850572 21.877833495742
8.699900000000001 0.0249362052480 -1.822082980057 0.9996855603500 -79.97772268836 0.9996855603500 -79.97772268836 0.0249372523222 21.877599222582
8.700000000000001 0.0249351702391 -1.823823566520 0.9996855856530 -79.97871069771 0.9996855856530 -79.97871069771 0.0249362175494 21.877365936069