! Sonnet Data File
! From: emgraph Version : 16.52
! From Emgraph Data: 170708_mm_squiggleX_Res5G_12
! Data File Written: 11/07/2017 15:11:36
!< HDATE 07/08/2017 18:42:22
!< MDATE 07/08/2017 18:42:22
!< PARAMS
!< Squiggle_length = 16.0
!< dcoup = 76.0
!< dCr = 12.0
!< END PARAMS
# GHZ S MA R 50.00000
4.00000000 0.039489 -117.4 0.999218 -30.70 0.999218 -30.70 0.039489 -124.0
!< P1 F=4.0 Eeff=(6.5397458 -3.016e-5) Z0=(50.7196015 1.16967e-4) R=0.01177901 C=0.01558055 
!< P2 F=4.0 Eeff=(6.5397458 -3.016e-5) Z0=(50.7196015 1.16967e-4) R=0.01177901 C=0.01558055 
4.00100000 0.039627 -117.4 0.999212 -30.71 0.999212 -30.71 0.039627 -124.0
4.00200000 0.039766 -117.4 0.999206 -30.73 0.999206 -30.73 0.039766 -124.0
4.00300000 0.039905 -117.4 0.999200 -30.74 0.999200 -30.74 0.039905 -124.1
4.00400000 0.040045 -117.5 0.999195 -30.76 0.999195 -30.76 0.040045 -124.1
4.00500000 0.040184 -117.5 0.999189 -30.77 0.999189 -30.77 0.040184 -124.1
4.00600000 0.040324 -117.5 0.999183 -30.79 0.999183 -30.79 0.040324 -124.1
4.00700000 0.040464 -117.5 0.999177 -30.80 0.999177 -30.80 0.040464 -124.1
4.00800000 0.040605 -117.5 0.999171 -30.82 0.999171 -30.82 0.040605 -124.1
4.00900000 0.040746 -117.6 0.999165 -30.83 0.999165 -30.83 0.040745 -124.1
4.01000000 0.040887 -117.6 0.999159 -30.85 0.999159 -30.85 0.040886 -124.1
4.01100000 0.041028 -117.6 0.999154 -30.86 0.999154 -30.86 0.041027 -124.1
4.01200000 0.041169 -117.6 0.999147 -30.88 0.999147 -30.88 0.041169 -124.1
4.01300000 0.041311 -117.7 0.999141 -30.89 0.999141 -30.89 0.041311 -124.1
4.01400000 0.041453 -117.7 0.999135 -30.91 0.999135 -30.91 0.041453 -124.2
4.01500000 0.041596 -117.7 0.999129 -30.92 0.999129 -30.92 0.041595 -124.2
4.01600000 0.041738 -117.7 0.999123 -30.94 0.999123 -30.94 0.041738 -124.2
4.01700000 0.041881 -117.7 0.999117 -30.95 0.999117 -30.95 0.041880 -124.2
4.01800000 0.042024 -117.8 0.999111 -30.97 0.999111 -30.97 0.042023 -124.2
4.01900000 0.042168 -117.8 0.999105 -30.98 0.999105 -30.98 0.042167 -124.2
4.02000000 0.042312 -117.8 0.999098 -31.00 0.999098 -31.00 0.042311 -124.2
4.02100000 0.042456 -117.8 0.999092 -31.01 0.999092 -31.01 0.042455 -124.2
4.02200000 0.042600 -117.8 0.999086 -31.03 0.999086 -31.03 0.042599 -124.2
4.02300000 0.042745 -117.9 0.999079 -31.04 0.999079 -31.04 0.042743 -124.2
4.02400000 0.042889 -117.9 0.999073 -31.06 0.999073 -31.06 0.042888 -124.3
4.02500000 0.043035 -117.9 0.999066 -31.07 0.999066 -31.07 0.043033 -124.3
4.02600000 0.043180 -117.9 0.999060 -31.09 0.999060 -31.09 0.043179 -124.3
4.02700000 0.043326 -117.9 0.999053 -31.10 0.999053 -31.10 0.043324 -124.3
4.02800000 0.043472 -118.0 0.999047 -31.12 0.999047 -31.12 0.043470 -124.3
4.02900000 0.043618 -118.0 0.999040 -31.13 0.999040 -31.13 0.043616 -124.3
4.03000000 0.043764 -118.0 0.999034 -31.15 0.999034 -31.15 0.043763 -124.3
4.03100000 0.043911 -118.0 0.999027 -31.17 0.999027 -31.17 0.043910 -124.3
4.03200000 0.044058 -118.1 0.999020 -31.18 0.999020 -31.18 0.044057 -124.3
4.03300000 0.044206 -118.1 0.999014 -31.20 0.999014 -31.20 0.044204 -124.3
4.03400000 0.044354 -118.1 0.999007 -31.21 0.999007 -31.21 0.044352 -124.4
4.03500000 0.044501 -118.1 0.999000 -31.23 0.999000 -31.23 0.044499 -124.4
4.03600000 0.044650 -118.1 0.998993 -31.24 0.998993 -31.24 0.044648 -124.4
4.03700000 0.044798 -118.2 0.998987 -31.26 0.998987 -31.26 0.044796 -124.4
4.03800000 0.044947 -118.2 0.998980 -31.27 0.998980 -31.27 0.044945 -124.4
4.03900000 0.045096 -118.2 0.998973 -31.29 0.998973 -31.29 0.045094 -124.4
4.04000000 0.045246 -118.2 0.998966 -31.30 0.998966 -31.30 0.045243 -124.4
4.04100000 0.045395 -118.2 0.998959 -31.32 0.998959 -31.32 0.045393 -124.4
4.04200000 0.045545 -118.3 0.998952 -31.33 0.998952 -31.33 0.045543 -124.4
4.04300000 0.045696 -118.3 0.998945 -31.35 0.998945 -31.35 0.045693 -124.4
4.04400000 0.045846 -118.3 0.998938 -31.37 0.998938 -31.37 0.045844 -124.5
4.04500000 0.045997 -118.3 0.998930 -31.38 0.998930 -31.38 0.045995 -124.5
4.04600000 0.046148 -118.3 0.998923 -31.40 0.998923 -31.40 0.046146 -124.5
4.04700000 0.046300 -118.4 0.998916 -31.41 0.998916 -31.41 0.046297 -124.5
4.04800000 0.046451 -118.4 0.998909 -31.43 0.998909 -31.43 0.046449 -124.5
4.04900000 0.046604 -118.4 0.998901 -31.44 0.998901 -31.44 0.046601 -124.5
4.05000000 0.046756 -118.4 0.998894 -31.46 0.998894 -31.46 0.046753 -124.5
4.05100000 0.046909 -118.4 0.998887 -31.47 0.998887 -31.47 0.046906 -124.5
4.05200000 0.047061 -118.5 0.998879 -31.49 0.998879 -31.49 0.047058 -124.5
4.05300000 0.047215 -118.5 0.998872 -31.51 0.998872 -31.51 0.047212 -124.6
4.05400000 0.047368 -118.5 0.998864 -31.52 0.998864 -31.52 0.047365 -124.6
4.05500000 0.047522 -118.5 0.998857 -31.54 0.998857 -31.54 0.047519 -124.6
4.05600000 0.047676 -118.5 0.998849 -31.55 0.998849 -31.55 0.047673 -124.6
4.05700000 0.047831 -118.6 0.998842 -31.57 0.998842 -31.57 0.047827 -124.6
4.05800000 0.047985 -118.6 0.998834 -31.58 0.998834 -31.58 0.047982 -124.6
4.05900000 0.048140 -118.6 0.998826 -31.60 0.998826 -31.60 0.048137 -124.6
4.06000000 0.048296 -118.6 0.998819 -31.62 0.998819 -31.62 0.048292 -124.6
4.06100000 0.048451 -118.7 0.998811 -31.63 0.998811 -31.63 0.048448 -124.6
4.06200000 0.048607 -118.7 0.998803 -31.65 0.998803 -31.65 0.048604 -124.7
4.06300000 0.048764 -118.7 0.998795 -31.66 0.998795 -31.66 0.048760 -124.7
4.06400000 0.048920 -118.7 0.998788 -31.68 0.998788 -31.68 0.048917 -124.7
4.06500000 0.049077 -118.7 0.998780 -31.69 0.998780 -31.69 0.049073 -124.7
4.06600000 0.049234 -118.8 0.998772 -31.71 0.998772 -31.71 0.049230 -124.7
4.06700000 0.049392 -118.8 0.998764 -31.73 0.998764 -31.73 0.049388 -124.7
4.06800000 0.049550 -118.8 0.998756 -31.74 0.998756 -31.74 0.049546 -124.7
4.06900000 0.049708 -118.8 0.998748 -31.76 0.998748 -31.76 0.049704 -124.7
4.07000000 0.049866 -118.8 0.998739 -31.77 0.998739 -31.77 0.049862 -124.7
4.07100000 0.050025 -118.9 0.998731 -31.79 0.998731 -31.79 0.050021 -124.8
4.07200000 0.050184 -118.9 0.998723 -31.81 0.998723 -31.81 0.050180 -124.8
4.07300000 0.050343 -118.9 0.998715 -31.82 0.998715 -31.82 0.050339 -124.8
4.07400000 0.050503 -118.9 0.998707 -31.84 0.998707 -31.84 0.050499 -124.8
4.07500000 0.050663 -118.9 0.998698 -31.85 0.998698 -31.85 0.050659 -124.8
4.07600000 0.050823 -119.0 0.998690 -31.87 0.998690 -31.87 0.050819 -124.8
4.07700000 0.050984 -119.0 0.998681 -31.89 0.998681 -31.89 0.050979 -124.8
4.07800000 0.051145 -119.0 0.998673 -31.90 0.998673 -31.90 0.051140 -124.8
4.07900000 0.051306 -119.0 0.998664 -31.92 0.998664 -31.92 0.051301 -124.9
4.08000000 0.051467 -119.0 0.998656 -31.93 0.998656 -31.93 0.051463 -124.9
4.08100000 0.051629 -119.1 0.998647 -31.95 0.998647 -31.95 0.051625 -124.9
4.08200000 0.051791 -119.1 0.998639 -31.97 0.998639 -31.97 0.051787 -124.9
4.08300000 0.051954 -119.1 0.998630 -31.98 0.998630 -31.98 0.051949 -124.9
4.08400000 0.052117 -119.1 0.998621 -32.00 0.998621 -32.00 0.052112 -124.9
4.08500000 0.052280 -119.1 0.998613 -32.02 0.998613 -32.02 0.052275 -124.9
4.08600000 0.052443 -119.2 0.998604 -32.03 0.998604 -32.03 0.052439 -124.9
4.08700000 0.052607 -119.2 0.998595 -32.05 0.998595 -32.05 0.052602 -125.0
4.08800000 0.052771 -119.2 0.998586 -32.06 0.998586 -32.06 0.052766 -125.0
4.08900000 0.052936 -119.2 0.998577 -32.08 0.998577 -32.08 0.052931 -125.0
4.09000000 0.053101 -119.2 0.998568 -32.10 0.998568 -32.10 0.053096 -125.0
4.09100000 0.053266 -119.3 0.998559 -32.11 0.998559 -32.11 0.053261 -125.0
4.09200000 0.053431 -119.3 0.998550 -32.13 0.998550 -32.13 0.053426 -125.0
4.09300000 0.053597 -119.3 0.998541 -32.15 0.998541 -32.15 0.053592 -125.0
4.09400000 0.053763 -119.3 0.998532 -32.16 0.998532 -32.16 0.053758 -125.0
4.09500000 0.053929 -119.4 0.998523 -32.18 0.998523 -32.18 0.053924 -125.1
4.09600000 0.054096 -119.4 0.998513 -32.20 0.998513 -32.20 0.054091 -125.1
4.09700000 0.054263 -119.4 0.998504 -32.21 0.998504 -32.21 0.054258 -125.1
4.09800000 0.054431 -119.4 0.998495 -32.23 0.998495 -32.23 0.054425 -125.1
4.09900000 0.054598 -119.4 0.998485 -32.24 0.998485 -32.24 0.054593 -125.1
4.10000000 0.054766 -119.5 0.998476 -32.26 0.998476 -32.26 0.054761 -125.1
4.10100000 0.054935 -119.5 0.998466 -32.28 0.998466 -32.28 0.054929 -125.1
4.10200000 0.055103 -119.5 0.998457 -32.29 0.998457 -32.29 0.055098 -125.1
4.10300000 0.055273 -119.5 0.998447 -32.31 0.998447 -32.31 0.055267 -125.2
4.10400000 0.055442 -119.5 0.998438 -32.33 0.998438 -32.33 0.055436 -125.2
4.10500000 0.055612 -119.6 0.998428 -32.34 0.998428 -32.34 0.055606 -125.2
4.10600000 0.055782 -119.6 0.998418 -32.36 0.998418 -32.36 0.055776 -125.2
4.10700000 0.055952 -119.6 0.998408 -32.38 0.998408 -32.38 0.055946 -125.2
4.10800000 0.056123 -119.6 0.998399 -32.39 0.998399 -32.39 0.056117 -125.2
4.10900000 0.056294 -119.6 0.998389 -32.41 0.998389 -32.41 0.056288 -125.2
4.11000000 0.056465 -119.7 0.998379 -32.43 0.998379 -32.43 0.056459 -125.2
4.11100000 0.056637 -119.7 0.998369 -32.44 0.998369 -32.44 0.056631 -125.3
4.11200000 0.056809 -119.7 0.998359 -32.46 0.998359 -32.46 0.056803 -125.3
4.11300000 0.056982 -119.7 0.998349 -32.48 0.998349 -32.48 0.056976 -125.3
4.11400000 0.057155 -119.7 0.998339 -32.49 0.998339 -32.49 0.057148 -125.3
4.11500000 0.057328 -119.8 0.998328 -32.51 0.998328 -32.51 0.057322 -125.3
4.11600000 0.057501 -119.8 0.998318 -32.53 0.998318 -32.53 0.057495 -125.3
4.11700000 0.057675 -119.8 0.998308 -32.54 0.998308 -32.54 0.057669 -125.3
4.11800000 0.057849 -119.8 0.998298 -32.56 0.998298 -32.56 0.057843 -125.4
4.11900000 0.058024 -119.8 0.998287 -32.58 0.998287 -32.58 0.058017 -125.4
4.12000000 0.058199 -119.9 0.998277 -32.60 0.998277 -32.60 0.058192 -125.4
4.12100000 0.058374 -119.9 0.998266 -32.61 0.998266 -32.61 0.058367 -125.4
4.12200000 0.058550 -119.9 0.998256 -32.63 0.998256 -32.63 0.058543 -125.4
4.12300000 0.058725 -119.9 0.998245 -32.65 0.998245 -32.65 0.058719 -125.4
4.12400000 0.058902 -119.9 0.998235 -32.66 0.998235 -32.66 0.058895 -125.4
4.12500000 0.059078 -120.0 0.998224 -32.68 0.998224 -32.68 0.059072 -125.4
4.12600000 0.059255 -120.0 0.998213 -32.70 0.998213 -32.70 0.059249 -125.5
4.12700000 0.059433 -120.0 0.998202 -32.71 0.998202 -32.71 0.059426 -125.5
4.12800000 0.059610 -120.0 0.998191 -32.73 0.998191 -32.73 0.059604 -125.5
4.12900000 0.059789 -120.1 0.998181 -32.75 0.998181 -32.75 0.059782 -125.5
4.13000000 0.059967 -120.1 0.998170 -32.77 0.998170 -32.77 0.059960 -125.5
4.13100000 0.060146 -120.1 0.998159 -32.78 0.998159 -32.78 0.060139 -125.5
4.13200000 0.060325 -120.1 0.998148 -32.80 0.998148 -32.80 0.060318 -125.5
4.13300000 0.060504 -120.1 0.998136 -32.82 0.998136 -32.82 0.060497 -125.6
4.13400000 0.060684 -120.2 0.998125 -32.83 0.998125 -32.83 0.060677 -125.6
4.13500000 0.060864 -120.2 0.998114 -32.85 0.998114 -32.85 0.060857 -125.6
4.13600000 0.061045 -120.2 0.998103 -32.87 0.998103 -32.87 0.061038 -125.6
4.13700000 0.061226 -120.2 0.998091 -32.89 0.998091 -32.89 0.061219 -125.6
4.13800000 0.061407 -120.2 0.998080 -32.90 0.998080 -32.90 0.061400 -125.6
4.13900000 0.061589 -120.3 0.998069 -32.92 0.998069 -32.92 0.061582 -125.6
4.14000000 0.061771 -120.3 0.998057 -32.94 0.998057 -32.94 0.061764 -125.7
4.14100000 0.061953 -120.3 0.998045 -32.95 0.998045 -32.95 0.061946 -125.7
4.14200000 0.062136 -120.3 0.998034 -32.97 0.998034 -32.97 0.062129 -125.7
4.14300000 0.062319 -120.3 0.998022 -32.99 0.998022 -32.99 0.062312 -125.7
4.14400000 0.062503 -120.4 0.998010 -33.01 0.998010 -33.01 0.062495 -125.7
4.14500000 0.062687 -120.4 0.997999 -33.02 0.997999 -33.02 0.062679 -125.7
4.14600000 0.062871 -120.4 0.997987 -33.04 0.997987 -33.04 0.062864 -125.7
4.14700000 0.063056 -120.4 0.997975 -33.06 0.997975 -33.06 0.063048 -125.8
4.14800000 0.063241 -120.4 0.997963 -33.08 0.997963 -33.08 0.063233 -125.8
4.14900000 0.063426 -120.5 0.997951 -33.09 0.997951 -33.09 0.063418 -125.8
4.15000000 0.063612 -120.5 0.997939 -33.11 0.997939 -33.11 0.063604 -125.8
4.15100000 0.063798 -120.5 0.997927 -33.13 0.997927 -33.13 0.063790 -125.8
4.15200000 0.063985 -120.5 0.997914 -33.15 0.997914 -33.15 0.063977 -125.8
4.15300000 0.064171 -120.6 0.997902 -33.16 0.997902 -33.16 0.064164 -125.8
4.15400000 0.064359 -120.6 0.997890 -33.18 0.997890 -33.18 0.064351 -125.9
4.15500000 0.064546 -120.6 0.997877 -33.20 0.997877 -33.20 0.064538 -125.9
4.15600000 0.064734 -120.6 0.997865 -33.22 0.997865 -33.22 0.064726 -125.9
4.15700000 0.064923 -120.6 0.997852 -33.23 0.997852 -33.23 0.064915 -125.9
4.15800000 0.065112 -120.7 0.997840 -33.25 0.997840 -33.25 0.065104 -125.9
4.15900000 0.065301 -120.7 0.997827 -33.27 0.997827 -33.27 0.065293 -125.9
4.16000000 0.065490 -120.7 0.997815 -33.29 0.997815 -33.29 0.065482 -125.9
4.16100000 0.065680 -120.7 0.997802 -33.31 0.997802 -33.31 0.065672 -126.0
4.16200000 0.065871 -120.7 0.997789 -33.32 0.997789 -33.32 0.065862 -126.0
4.16300000 0.066061 -120.8 0.997776 -33.34 0.997776 -33.34 0.066053 -126.0
4.16400000 0.066252 -120.8 0.997763 -33.36 0.997763 -33.36 0.066244 -126.0
4.16500000 0.066444 -120.8 0.997750 -33.38 0.997750 -33.38 0.066436 -126.0
4.16600000 0.066636 -120.8 0.997737 -33.39 0.997737 -33.39 0.066628 -126.0
4.16700000 0.066828 -120.8 0.997724 -33.41 0.997724 -33.41 0.066820 -126.0
4.16800000 0.067021 -120.9 0.997711 -33.43 0.997711 -33.43 0.067012 -126.1
4.16900000 0.067214 -120.9 0.997697 -33.45 0.997697 -33.45 0.067206 -126.1
4.17000000 0.067407 -120.9 0.997684 -33.47 0.997684 -33.47 0.067399 -126.1
4.17100000 0.067601 -120.9 0.997671 -33.48 0.997671 -33.48 0.067593 -126.1
4.17200000 0.067795 -121.0 0.997657 -33.50 0.997657 -33.50 0.067787 -126.1
4.17300000 0.067990 -121.0 0.997644 -33.52 0.997644 -33.52 0.067982 -126.1
4.17400000 0.068185 -121.0 0.997630 -33.54 0.997630 -33.54 0.068177 -126.2
4.17500000 0.068381 -121.0 0.997616 -33.56 0.997616 -33.56 0.068372 -126.2
4.17600000 0.068576 -121.0 0.997603 -33.57 0.997603 -33.57 0.068568 -126.2
4.17700000 0.068773 -121.1 0.997589 -33.59 0.997589 -33.59 0.068764 -126.2
4.17800000 0.068969 -121.1 0.997575 -33.61 0.997575 -33.61 0.068961 -126.2
4.17900000 0.069166 -121.1 0.997561 -33.63 0.997561 -33.63 0.069158 -126.2
4.18000000 0.069364 -121.1 0.997547 -33.65 0.997547 -33.65 0.069355 -126.2
4.18100000 0.069562 -121.1 0.997533 -33.67 0.997533 -33.67 0.069553 -126.3
4.18200000 0.069760 -121.2 0.997519 -33.68 0.997519 -33.68 0.069751 -126.3
4.18300000 0.069959 -121.2 0.997505 -33.70 0.997505 -33.70 0.069950 -126.3
4.18400000 0.070158 -121.2 0.997491 -33.72 0.997491 -33.72 0.070149 -126.3
4.18500000 0.070357 -121.2 0.997476 -33.74 0.997476 -33.74 0.070348 -126.3
4.18600000 0.070557 -121.2 0.997462 -33.76 0.997462 -33.76 0.070548 -126.3
4.18700000 0.070758 -121.3 0.997447 -33.78 0.997447 -33.78 0.070749 -126.4
4.18800000 0.070958 -121.3 0.997433 -33.79 0.997433 -33.79 0.070949 -126.4
4.18900000 0.071159 -121.3 0.997418 -33.81 0.997418 -33.81 0.071150 -126.4
4.19000000 0.071361 -121.3 0.997403 -33.83 0.997403 -33.83 0.071352 -126.4
4.19100000 0.071563 -121.4 0.997389 -33.85 0.997389 -33.85 0.071554 -126.4
4.19200000 0.071765 -121.4 0.997374 -33.87 0.997374 -33.87 0.071756 -126.4
4.19300000 0.071968 -121.4 0.997359 -33.89 0.997359 -33.89 0.071959 -126.4
4.19400000 0.072171 -121.4 0.997344 -33.90 0.997344 -33.90 0.072162 -126.5
4.19500000 0.072375 -121.4 0.997329 -33.92 0.997329 -33.92 0.072366 -126.5
4.19600000 0.072579 -121.5 0.997314 -33.94 0.997314 -33.94 0.072570 -126.5
4.19700000 0.072784 -121.5 0.997299 -33.96 0.997299 -33.96 0.072774 -126.5
4.19800000 0.072989 -121.5 0.997283 -33.98 0.997283 -33.98 0.072979 -126.5
4.19900000 0.073194 -121.5 0.997268 -34.00 0.997268 -34.00 0.073185 -126.5
4.20000000 0.073400 -121.5 0.997253 -34.02 0.997253 -34.02 0.073390 -126.6
4.20100000 0.073606 -121.6 0.997237 -34.03 0.997237 -34.03 0.073597 -126.6
4.20200000 0.073813 -121.6 0.997222 -34.05 0.997222 -34.05 0.073803 -126.6
4.20300000 0.074020 -121.6 0.997206 -34.07 0.997206 -34.07 0.074010 -126.6
4.20400000 0.074227 -121.6 0.997190 -34.09 0.997190 -34.09 0.074218 -126.6
4.20500000 0.074435 -121.7 0.997174 -34.11 0.997174 -34.11 0.074426 -126.6
4.20600000 0.074643 -121.7 0.997158 -34.13 0.997158 -34.13 0.074634 -126.7
4.20700000 0.074852 -121.7 0.997143 -34.15 0.997143 -34.15 0.074843 -126.7
4.20800000 0.075061 -121.7 0.997126 -34.17 0.997126 -34.17 0.075052 -126.7
4.20900000 0.075271 -121.7 0.997110 -34.18 0.997110 -34.18 0.075261 -126.7
4.21000000 0.075481 -121.8 0.997094 -34.20 0.997094 -34.20 0.075471 -126.7
4.21100000 0.075692 -121.8 0.997078 -34.22 0.997078 -34.22 0.075682 -126.7
4.21200000 0.075903 -121.8 0.997062 -34.24 0.997062 -34.24 0.075893 -126.8
4.21300000 0.076114 -121.8 0.997045 -34.26 0.997045 -34.26 0.076104 -126.8
4.21400000 0.076326 -121.8 0.997029 -34.28 0.997029 -34.28 0.076316 -126.8
4.21500000 0.076538 -121.9 0.997012 -34.30 0.997012 -34.30 0.076528 -126.8
4.21600000 0.076751 -121.9 0.996995 -34.32 0.996995 -34.32 0.076741 -126.8
4.21700000 0.076964 -121.9 0.996979 -34.34 0.996979 -34.34 0.076954 -126.8
4.21800000 0.077178 -121.9 0.996962 -34.36 0.996962 -34.36 0.077168 -126.9
4.21900000 0.077392 -122.0 0.996945 -34.38 0.996945 -34.38 0.077382 -126.9
4.22000000 0.077606 -122.0 0.996928 -34.39 0.996928 -34.39 0.077596 -126.9
4.22100000 0.077821 -122.0 0.996911 -34.41 0.996911 -34.41 0.077811 -126.9
4.22200000 0.078037 -122.0 0.996894 -34.43 0.996894 -34.43 0.078027 -126.9
4.22300000 0.078253 -122.0 0.996877 -34.45 0.996877 -34.45 0.078243 -126.9
4.22400000 0.078469 -122.1 0.996859 -34.47 0.996859 -34.47 0.078459 -127.0
4.22500000 0.078686 -122.1 0.996842 -34.49 0.996842 -34.49 0.078676 -127.0
4.22600000 0.078903 -122.1 0.996824 -34.51 0.996824 -34.51 0.078893 -127.0
4.22700000 0.079121 -122.1 0.996807 -34.53 0.996807 -34.53 0.079110 -127.0
4.22800000 0.079339 -122.2 0.996789 -34.55 0.996789 -34.55 0.079329 -127.0
4.22900000 0.079557 -122.2 0.996771 -34.57 0.996771 -34.57 0.079547 -127.0
4.23000000 0.079776 -122.2 0.996754 -34.59 0.996754 -34.59 0.079766 -127.1
4.23100000 0.079996 -122.2 0.996736 -34.61 0.996736 -34.61 0.079986 -127.1
4.23200000 0.080216 -122.2 0.996718 -34.63 0.996718 -34.63 0.080206 -127.1
4.23300000 0.080436 -122.3 0.996700 -34.65 0.996700 -34.65 0.080426 -127.1
4.23400000 0.080657 -122.3 0.996681 -34.67 0.996681 -34.67 0.080647 -127.1
4.23500000 0.080879 -122.3 0.996663 -34.68 0.996663 -34.68 0.080868 -127.1
4.23600000 0.081100 -122.3 0.996645 -34.70 0.996645 -34.70 0.081090 -127.2
4.23700000 0.081323 -122.4 0.996626 -34.72 0.996626 -34.72 0.081312 -127.2
4.23800000 0.081546 -122.4 0.996608 -34.74 0.996608 -34.74 0.081535 -127.2
4.23900000 0.081769 -122.4 0.996589 -34.76 0.996589 -34.76 0.081758 -127.2
4.24000000 0.081993 -122.4 0.996571 -34.78 0.996571 -34.78 0.081982 -127.2
4.24100000 0.082217 -122.4 0.996552 -34.80 0.996552 -34.80 0.082206 -127.3
4.24200000 0.082441 -122.5 0.996533 -34.82 0.996533 -34.82 0.082431 -127.3
4.24300000 0.082667 -122.5 0.996514 -34.84 0.996514 -34.84 0.082656 -127.3
4.24400000 0.082892 -122.5 0.996495 -34.86 0.996495 -34.86 0.082882 -127.3
4.24500000 0.083118 -122.5 0.996476 -34.88 0.996476 -34.88 0.083108 -127.3
4.24600000 0.083345 -122.5 0.996457 -34.90 0.996457 -34.90 0.083334 -127.3
4.24700000 0.083572 -122.6 0.996437 -34.92 0.996437 -34.92 0.083561 -127.4
4.24800000 0.083800 -122.6 0.996418 -34.94 0.996418 -34.94 0.083789 -127.4
4.24900000 0.084028 -122.6 0.996398 -34.96 0.996398 -34.96 0.084017 -127.4
4.25000000 0.084256 -122.6 0.996379 -34.98 0.996379 -34.98 0.084245 -127.4
4.25100000 0.084485 -122.7 0.996359 -35.00 0.996359 -35.00 0.084474 -127.4
4.25200000 0.084715 -122.7 0.996339 -35.02 0.996339 -35.02 0.084704 -127.4
4.25300000 0.084945 -122.7 0.996319 -35.04 0.996319 -35.04 0.084934 -127.5
4.25400000 0.085175 -122.7 0.996299 -35.06 0.996299 -35.06 0.085164 -127.5
4.25500000 0.085406 -122.8 0.996279 -35.08 0.996279 -35.08 0.085395 -127.5
4.25600000 0.085637 -122.8 0.996259 -35.10 0.996259 -35.10 0.085627 -127.5
4.25700000 0.085869 -122.8 0.996239 -35.12 0.996239 -35.12 0.085859 -127.5
4.25800000 0.086102 -122.8 0.996218 -35.14 0.996218 -35.14 0.086091 -127.6
4.25900000 0.086335 -122.8 0.996198 -35.16 0.996198 -35.16 0.086324 -127.6
4.26000000 0.086568 -122.9 0.996177 -35.18 0.996177 -35.18 0.086557 -127.6
4.26100000 0.086802 -122.9 0.996156 -35.20 0.996156 -35.20 0.086791 -127.6
4.26200000 0.087037 -122.9 0.996136 -35.22 0.996136 -35.22 0.087026 -127.6
4.26300000 0.087272 -122.9 0.996115 -35.24 0.996115 -35.24 0.087261 -127.6
4.26400000 0.087507 -123.0 0.996094 -35.26 0.996094 -35.26 0.087496 -127.7
4.26500000 0.087743 -123.0 0.996073 -35.28 0.996073 -35.28 0.087732 -127.7
4.26600000 0.087979 -123.0 0.996052 -35.30 0.996052 -35.30 0.087968 -127.7
4.26700000 0.088216 -123.0 0.996030 -35.33 0.996030 -35.33 0.088205 -127.7
4.26800000 0.088454 -123.0 0.996009 -35.35 0.996009 -35.35 0.088443 -127.7
4.26900000 0.088692 -123.1 0.995987 -35.37 0.995987 -35.37 0.088681 -127.8
4.27000000 0.088930 -123.1 0.995966 -35.39 0.995966 -35.39 0.088919 -127.8
4.27100000 0.089169 -123.1 0.995944 -35.41 0.995944 -35.41 0.089158 -127.8
4.27200000 0.089409 -123.1 0.995922 -35.43 0.995922 -35.43 0.089398 -127.8
4.27300000 0.089649 -123.2 0.995900 -35.45 0.995900 -35.45 0.089638 -127.8
4.27400000 0.089889 -123.2 0.995878 -35.47 0.995878 -35.47 0.089878 -127.9
4.27500000 0.090130 -123.2 0.995856 -35.49 0.995856 -35.49 0.090119 -127.9
4.27600000 0.090372 -123.2 0.995834 -35.51 0.995834 -35.51 0.090361 -127.9
4.27700000 0.090614 -123.2 0.995812 -35.53 0.995812 -35.53 0.090603 -127.9
4.27800000 0.090857 -123.3 0.995789 -35.55 0.995789 -35.55 0.090845 -127.9
4.27900000 0.091100 -123.3 0.995767 -35.57 0.995767 -35.57 0.091089 -127.9
4.28000000 0.091344 -123.3 0.995744 -35.59 0.995744 -35.59 0.091332 -128.0
4.28100000 0.091588 -123.3 0.995721 -35.61 0.995721 -35.61 0.091576 -128.0
4.28200000 0.091832 -123.4 0.995698 -35.64 0.995698 -35.64 0.091821 -128.0
4.28300000 0.092078 -123.4 0.995675 -35.66 0.995675 -35.66 0.092066 -128.0
4.28400000 0.092324 -123.4 0.995652 -35.68 0.995652 -35.68 0.092312 -128.0
4.28500000 0.092570 -123.4 0.995629 -35.70 0.995629 -35.70 0.092558 -128.1
4.28600000 0.092817 -123.5 0.995606 -35.72 0.995606 -35.72 0.092805 -128.1
4.28700000 0.093064 -123.5 0.995582 -35.74 0.995582 -35.74 0.093053 -128.1
4.28800000 0.093312 -123.5 0.995559 -35.76 0.995559 -35.76 0.093301 -128.1
4.28900000 0.093560 -123.5 0.995535 -35.78 0.995535 -35.78 0.093549 -128.1
4.29000000 0.093809 -123.5 0.995511 -35.80 0.995511 -35.80 0.093798 -128.2
4.29100000 0.094059 -123.6 0.995487 -35.83 0.995487 -35.83 0.094047 -128.2
4.29200000 0.094309 -123.6 0.995463 -35.85 0.995463 -35.85 0.094298 -128.2
4.29300000 0.094560 -123.6 0.995439 -35.87 0.995439 -35.87 0.094548 -128.2
4.29400000 0.094811 -123.6 0.995415 -35.89 0.995415 -35.89 0.094799 -128.2
4.29500000 0.095063 -123.7 0.995391 -35.91 0.995391 -35.91 0.095051 -128.3
4.29600000 0.095315 -123.7 0.995366 -35.93 0.995366 -35.93 0.095303 -128.3
4.29700000 0.095568 -123.7 0.995342 -35.95 0.995342 -35.95 0.095556 -128.3
4.29800000 0.095821 -123.7 0.995317 -35.97 0.995317 -35.97 0.095809 -128.3
4.29900000 0.096075 -123.8 0.995292 -36.00 0.995292 -36.00 0.096063 -128.3
4.30000000 0.096330 -123.8 0.995267 -36.02 0.995267 -36.02 0.096318 -128.3
4.30100000 0.096585 -123.8 0.995242 -36.04 0.995242 -36.04 0.096573 -128.4
4.30200000 0.096840 -123.8 0.995217 -36.06 0.995217 -36.06 0.096829 -128.4
4.30300000 0.097096 -123.9 0.995191 -36.08 0.995191 -36.08 0.097085 -128.4
4.30400000 0.097353 -123.9 0.995166 -36.10 0.995166 -36.10 0.097341 -128.4
4.30500000 0.097610 -123.9 0.995140 -36.13 0.995140 -36.13 0.097599 -128.4
4.30600000 0.097868 -123.9 0.995115 -36.15 0.995115 -36.15 0.097856 -128.5
4.30700000 0.098127 -123.9 0.995089 -36.17 0.995089 -36.17 0.098115 -128.5
4.30800000 0.098386 -124.0 0.995063 -36.19 0.995063 -36.19 0.098374 -128.5
4.30900000 0.098645 -124.0 0.995037 -36.21 0.995037 -36.21 0.098633 -128.5
4.31000000 0.098905 -124.0 0.995011 -36.23 0.995011 -36.23 0.098893 -128.5
4.31100000 0.099166 -124.0 0.994985 -36.26 0.994985 -36.26 0.099154 -128.6
4.31200000 0.099427 -124.1 0.994958 -36.28 0.994958 -36.28 0.099415 -128.6
4.31300000 0.099689 -124.1 0.994932 -36.30 0.994932 -36.30 0.099677 -128.6
4.31400000 0.099952 -124.1 0.994905 -36.32 0.994905 -36.32 0.099940 -128.6
4.31500000 0.100215 -124.1 0.994878 -36.34 0.994878 -36.34 0.100203 -128.6
4.31600000 0.100478 -124.2 0.994851 -36.37 0.994851 -36.37 0.100466 -128.7
4.31700000 0.100742 -124.2 0.994824 -36.39 0.994824 -36.39 0.100730 -128.7
4.31800000 0.101007 -124.2 0.994797 -36.41 0.994797 -36.41 0.100995 -128.7
4.31900000 0.101272 -124.2 0.994770 -36.43 0.994770 -36.43 0.101260 -128.7
4.32000000 0.101538 -124.3 0.994742 -36.45 0.994742 -36.45 0.101526 -128.8
4.32100000 0.101805 -124.3 0.994714 -36.48 0.994714 -36.48 0.101793 -128.8
4.32200000 0.102072 -124.3 0.994687 -36.50 0.994687 -36.50 0.102060 -128.8
4.32300000 0.102340 -124.3 0.994659 -36.52 0.994659 -36.52 0.102327 -128.8
4.32400000 0.102608 -124.4 0.994631 -36.54 0.994631 -36.54 0.102596 -128.8
4.32500000 0.102877 -124.4 0.994603 -36.56 0.994603 -36.56 0.102865 -128.9
4.32600000 0.103146 -124.4 0.994574 -36.59 0.994574 -36.59 0.103134 -128.9
4.32700000 0.103416 -124.4 0.994546 -36.61 0.994546 -36.61 0.103404 -128.9
4.32800000 0.103687 -124.4 0.994517 -36.63 0.994517 -36.63 0.103675 -128.9
4.32900000 0.103958 -124.5 0.994489 -36.65 0.994489 -36.65 0.103946 -128.9
4.33000000 0.104230 -124.5 0.994460 -36.68 0.994460 -36.68 0.104218 -129.0
4.33100000 0.104502 -124.5 0.994431 -36.70 0.994431 -36.70 0.104490 -129.0
4.33200000 0.104776 -124.5 0.994402 -36.72 0.994402 -36.72 0.104763 -129.0
4.33300000 0.105049 -124.6 0.994373 -36.74 0.994373 -36.74 0.105037 -129.0
4.33400000 0.105324 -124.6 0.994343 -36.77 0.994343 -36.77 0.105311 -129.0
4.33500000 0.105598 -124.6 0.994314 -36.79 0.994314 -36.79 0.105586 -129.1
4.33600000 0.105874 -124.6 0.994284 -36.81 0.994284 -36.81 0.105862 -129.1
4.33700000 0.106150 -124.7 0.994254 -36.83 0.994254 -36.83 0.106138 -129.1
4.33800000 0.106427 -124.7 0.994224 -36.86 0.994224 -36.86 0.106415 -129.1
4.33900000 0.106704 -124.7 0.994194 -36.88 0.994194 -36.88 0.106692 -129.1
4.34000000 0.106982 -124.7 0.994164 -36.90 0.994164 -36.90 0.106970 -129.2
4.34100000 0.107261 -124.8 0.994134 -36.93 0.994134 -36.93 0.107249 -129.2
4.34200000 0.107540 -124.8 0.994103 -36.95 0.994103 -36.95 0.107528 -129.2
4.34300000 0.107820 -124.8 0.994072 -36.97 0.994072 -36.97 0.107808 -129.2
4.34400000 0.108100 -124.8 0.994041 -37.00 0.994041 -37.00 0.108088 -129.3
4.34500000 0.108382 -124.9 0.994010 -37.02 0.994010 -37.02 0.108369 -129.3
4.34600000 0.108663 -124.9 0.993979 -37.04 0.993979 -37.04 0.108651 -129.3
4.34700000 0.108946 -124.9 0.993948 -37.06 0.993948 -37.06 0.108933 -129.3
4.34800000 0.109229 -124.9 0.993917 -37.09 0.993917 -37.09 0.109216 -129.3
4.34900000 0.109512 -125.0 0.993885 -37.11 0.993885 -37.11 0.109500 -129.4
4.35000000 0.109797 -125.0 0.993853 -37.13 0.993853 -37.13 0.109784 -129.4
4.35100000 0.110082 -125.0 0.993821 -37.16 0.993821 -37.16 0.110069 -129.4
4.35200000 0.110367 -125.0 0.993789 -37.18 0.993789 -37.18 0.110355 -129.4
4.35300000 0.110653 -125.1 0.993757 -37.20 0.993757 -37.20 0.110641 -129.4
4.35400000 0.110940 -125.1 0.993725 -37.23 0.993725 -37.23 0.110928 -129.5
4.35500000 0.111228 -125.1 0.993692 -37.25 0.993692 -37.25 0.111215 -129.5
4.35600000 0.111516 -125.1 0.993660 -37.27 0.993660 -37.27 0.111504 -129.5
4.35700000 0.111805 -125.2 0.993627 -37.30 0.993627 -37.30 0.111792 -129.5
4.35800000 0.112094 -125.2 0.993594 -37.32 0.993594 -37.32 0.112082 -129.6
4.35900000 0.112384 -125.2 0.993561 -37.34 0.993561 -37.34 0.112372 -129.6
4.36000000 0.112675 -125.2 0.993527 -37.37 0.993527 -37.37 0.112663 -129.6
4.36100000 0.112967 -125.3 0.993494 -37.39 0.993494 -37.39 0.112954 -129.6
4.36200000 0.113259 -125.3 0.993460 -37.41 0.993460 -37.41 0.113246 -129.6
4.36300000 0.113551 -125.3 0.993426 -37.44 0.993426 -37.44 0.113539 -129.7
4.36400000 0.113845 -125.3 0.993392 -37.46 0.993392 -37.46 0.113832 -129.7
4.36500000 0.114139 -125.4 0.993358 -37.49 0.993358 -37.49 0.114126 -129.7
4.36600000 0.114434 -125.4 0.993324 -37.51 0.993324 -37.51 0.114421 -129.7
4.36700000 0.114729 -125.4 0.993289 -37.53 0.993289 -37.53 0.114717 -129.8
4.36800000 0.115025 -125.4 0.993255 -37.56 0.993255 -37.56 0.115013 -129.8
4.36900000 0.115322 -125.5 0.993220 -37.58 0.993220 -37.58 0.115310 -129.8
4.37000000 0.115620 -125.5 0.993185 -37.61 0.993185 -37.61 0.115607 -129.8
4.37100000 0.115918 -125.5 0.993150 -37.63 0.993150 -37.63 0.115905 -129.8
4.37200000 0.116216 -125.5 0.993115 -37.65 0.993115 -37.65 0.116204 -129.9
4.37300000 0.116516 -125.6 0.993079 -37.68 0.993079 -37.68 0.116503 -129.9
4.37400000 0.116816 -125.6 0.993043 -37.70 0.993043 -37.70 0.116804 -129.9
4.37500000 0.117117 -125.6 0.993008 -37.73 0.993008 -37.73 0.117104 -129.9
4.37600000 0.117419 -125.6 0.992972 -37.75 0.992972 -37.75 0.117406 -130.0
4.37700000 0.117721 -125.7 0.992935 -37.77 0.992935 -37.77 0.117708 -130.0
4.37800000 0.118024 -125.7 0.992899 -37.80 0.992899 -37.80 0.118011 -130.0
4.37900000 0.118327 -125.7 0.992863 -37.82 0.992863 -37.82 0.118315 -130.0
4.38000000 0.118632 -125.8 0.992826 -37.85 0.992826 -37.85 0.118619 -130.1
4.38100000 0.118937 -125.8 0.992789 -37.87 0.992789 -37.87 0.118924 -130.1
4.38200000 0.119242 -125.8 0.992752 -37.90 0.992752 -37.90 0.119230 -130.1
4.38300000 0.119549 -125.8 0.992715 -37.92 0.992715 -37.92 0.119536 -130.1
4.38400000 0.119856 -125.9 0.992677 -37.95 0.992677 -37.95 0.119843 -130.1
4.38500000 0.120164 -125.9 0.992640 -37.97 0.992640 -37.97 0.120151 -130.2
4.38600000 0.120472 -125.9 0.992602 -37.99 0.992602 -37.99 0.120460 -130.2
4.38700000 0.120782 -125.9 0.992564 -38.02 0.992564 -38.02 0.120769 -130.2
4.38800000 0.121092 -126.0 0.992526 -38.04 0.992526 -38.04 0.121079 -130.2
4.38900000 0.121402 -126.0 0.992487 -38.07 0.992487 -38.07 0.121390 -130.3
4.39000000 0.121714 -126.0 0.992449 -38.09 0.992449 -38.09 0.121701 -130.3
4.39100000 0.122026 -126.0 0.992410 -38.12 0.992410 -38.12 0.122013 -130.3
4.39200000 0.122339 -126.1 0.992371 -38.14 0.992371 -38.14 0.122326 -130.3