! Sonnet Data File
! From: emgraph Version : 16.52
! From Emgraph Data: 171027_mm_squiggleX_Res5G_12_Odd2
! Data File Written: 11/06/2017 21:58:14
!< HDATE 10/28/2017 16:08:10
!< MDATE 10/28/2017 16:08:10
!< PARAMS
!< dCr = 12.0
!< Squiggle_length = 16.0
!< END PARAMS
# GHZ S MA R 190.3000
4.00000000 0.384834 -115.5 0.922983 -25.47 0.922983 -25.47 0.384834 -115.5
!< P1 F=4.0 Eeff=(7.27450281 -3.3551e-5) Z0=(190.292401 4.38669e-4) R=0.0 C=0.0 
!< P2 F=4.0 Eeff=(7.27450281 -3.3551e-5) Z0=(190.292401 4.38669e-4) R=0.0 C=0.0 
4.00100000 0.385039 -115.5 0.922897 -25.48 0.922897 -25.48 0.385039 -115.5
4.00200000 0.385244 -115.5 0.922812 -25.50 0.922812 -25.50 0.385243 -115.5
4.00300000 0.385449 -115.5 0.922727 -25.51 0.922727 -25.51 0.385448 -115.5
4.00400000 0.385654 -115.5 0.922641 -25.52 0.922641 -25.52 0.385654 -115.5
4.00500000 0.385859 -115.6 0.922556 -25.54 0.922556 -25.54 0.385859 -115.5
4.00600000 0.386065 -115.6 0.922470 -25.55 0.922470 -25.55 0.386065 -115.5
4.00700000 0.386271 -115.6 0.922384 -25.56 0.922384 -25.56 0.386270 -115.5
4.00800000 0.386477 -115.6 0.922298 -25.58 0.922298 -25.58 0.386477 -115.6
4.00900000 0.386683 -115.6 0.922211 -25.59 0.922211 -25.59 0.386683 -115.6
4.01000000 0.386890 -115.6 0.922125 -25.60 0.922125 -25.60 0.386889 -115.6
4.01100000 0.387097 -115.6 0.922039 -25.62 0.922039 -25.62 0.387096 -115.6
4.01200000 0.387304 -115.6 0.921952 -25.63 0.921952 -25.63 0.387303 -115.6
4.01300000 0.387511 -115.7 0.921865 -25.65 0.921865 -25.65 0.387510 -115.6
4.01400000 0.387718 -115.7 0.921778 -25.66 0.921778 -25.66 0.387717 -115.6
4.01500000 0.387926 -115.7 0.921691 -25.67 0.921691 -25.67 0.387925 -115.7
4.01600000 0.388134 -115.7 0.921604 -25.69 0.921604 -25.69 0.388133 -115.7
4.01700000 0.388342 -115.7 0.921516 -25.70 0.921516 -25.70 0.388341 -115.7
4.01800000 0.388550 -115.7 0.921429 -25.71 0.921429 -25.71 0.388549 -115.7
4.01900000 0.388759 -115.7 0.921341 -25.73 0.921341 -25.73 0.388757 -115.7
4.02000000 0.388967 -115.8 0.921253 -25.74 0.921253 -25.74 0.388966 -115.7
4.02100000 0.389176 -115.8 0.921165 -25.75 0.921165 -25.75 0.389175 -115.7
4.02200000 0.389385 -115.8 0.921077 -25.77 0.921077 -25.77 0.389384 -115.8
4.02300000 0.389595 -115.8 0.920988 -25.78 0.920988 -25.78 0.389593 -115.8
4.02400000 0.389804 -115.8 0.920900 -25.80 0.920900 -25.80 0.389803 -115.8
4.02500000 0.390014 -115.8 0.920811 -25.81 0.920811 -25.81 0.390012 -115.8
4.02600000 0.390224 -115.8 0.920723 -25.82 0.920723 -25.82 0.390222 -115.8
4.02700000 0.390434 -115.9 0.920634 -25.84 0.920634 -25.84 0.390433 -115.8
4.02800000 0.390645 -115.9 0.920545 -25.85 0.920545 -25.85 0.390643 -115.8
4.02900000 0.390856 -115.9 0.920455 -25.87 0.920455 -25.87 0.390854 -115.8
4.03000000 0.391066 -115.9 0.920366 -25.88 0.920366 -25.88 0.391065 -115.9
4.03100000 0.391278 -115.9 0.920276 -25.89 0.920276 -25.89 0.391276 -115.9
4.03200000 0.391489 -115.9 0.920187 -25.91 0.920187 -25.91 0.391487 -115.9
4.03300000 0.391701 -115.9 0.920097 -25.92 0.920097 -25.92 0.391698 -115.9
4.03400000 0.391912 -115.9 0.920007 -25.93 0.920007 -25.93 0.391910 -115.9
4.03500000 0.392124 -116.0 0.919917 -25.95 0.919917 -25.95 0.392122 -115.9
4.03600000 0.392337 -116.0 0.919826 -25.96 0.919826 -25.96 0.392334 -115.9
4.03700000 0.392549 -116.0 0.919736 -25.98 0.919736 -25.98 0.392547 -116.0
4.03800000 0.392762 -116.0 0.919645 -25.99 0.919645 -25.99 0.392760 -116.0
4.03900000 0.392975 -116.0 0.919555 -26.00 0.919555 -26.00 0.392972 -116.0
4.04000000 0.393188 -116.0 0.919464 -26.02 0.919464 -26.02 0.393186 -116.0
4.04100000 0.393402 -116.0 0.919372 -26.03 0.919372 -26.03 0.393399 -116.0
4.04200000 0.393615 -116.1 0.919281 -26.05 0.919281 -26.05 0.393612 -116.0
4.04300000 0.393829 -116.1 0.919190 -26.06 0.919190 -26.06 0.393826 -116.0
4.04400000 0.394043 -116.1 0.919098 -26.07 0.919098 -26.07 0.394040 -116.1
4.04500000 0.394257 -116.1 0.919007 -26.09 0.919007 -26.09 0.394255 -116.1
4.04600000 0.394472 -116.1 0.918915 -26.10 0.918915 -26.10 0.394469 -116.1
4.04700000 0.394687 -116.1 0.918823 -26.12 0.918823 -26.12 0.394684 -116.1
4.04800000 0.394902 -116.1 0.918730 -26.13 0.918730 -26.13 0.394899 -116.1
4.04900000 0.395117 -116.2 0.918638 -26.14 0.918638 -26.14 0.395114 -116.1
4.05000000 0.395333 -116.2 0.918545 -26.16 0.918545 -26.16 0.395329 -116.1
4.05100000 0.395548 -116.2 0.918453 -26.17 0.918453 -26.17 0.395545 -116.2
4.05200000 0.395764 -116.2 0.918360 -26.19 0.918360 -26.19 0.395761 -116.2
4.05300000 0.395980 -116.2 0.918267 -26.20 0.918267 -26.20 0.395977 -116.2
4.05400000 0.396197 -116.2 0.918174 -26.22 0.918174 -26.22 0.396193 -116.2
4.05500000 0.396414 -116.2 0.918080 -26.23 0.918080 -26.23 0.396410 -116.2
4.05600000 0.396630 -116.3 0.917987 -26.24 0.917987 -26.24 0.396627 -116.2
4.05700000 0.396848 -116.3 0.917893 -26.26 0.917893 -26.26 0.396844 -116.2
4.05800000 0.397065 -116.3 0.917799 -26.27 0.917799 -26.27 0.397061 -116.3
4.05900000 0.397283 -116.3 0.917705 -26.29 0.917705 -26.29 0.397279 -116.3
4.06000000 0.397500 -116.3 0.917611 -26.30 0.917611 -26.30 0.397497 -116.3
4.06100000 0.397718 -116.3 0.917517 -26.32 0.917517 -26.32 0.397715 -116.3
4.06200000 0.397937 -116.3 0.917422 -26.33 0.917422 -26.33 0.397933 -116.3
4.06300000 0.398155 -116.4 0.917328 -26.34 0.917328 -26.34 0.398151 -116.3
4.06400000 0.398374 -116.4 0.917233 -26.36 0.917233 -26.36 0.398370 -116.3
4.06500000 0.398593 -116.4 0.917138 -26.37 0.917138 -26.37 0.398589 -116.4
4.06600000 0.398812 -116.4 0.917043 -26.39 0.917043 -26.39 0.398808 -116.4
4.06700000 0.399032 -116.4 0.916947 -26.40 0.916947 -26.40 0.399028 -116.4
4.06800000 0.399252 -116.4 0.916852 -26.42 0.916852 -26.42 0.399248 -116.4
4.06900000 0.399472 -116.4 0.916756 -26.43 0.916756 -26.43 0.399468 -116.4
4.07000000 0.399692 -116.5 0.916660 -26.45 0.916660 -26.45 0.399688 -116.4
4.07100000 0.399912 -116.5 0.916564 -26.46 0.916564 -26.46 0.399908 -116.4
4.07200000 0.400133 -116.5 0.916468 -26.47 0.916468 -26.47 0.400129 -116.5
4.07300000 0.400354 -116.5 0.916372 -26.49 0.916372 -26.49 0.400350 -116.5
4.07400000 0.400575 -116.5 0.916275 -26.50 0.916275 -26.50 0.400571 -116.5
4.07500000 0.400797 -116.5 0.916178 -26.52 0.916178 -26.52 0.400792 -116.5
4.07600000 0.401019 -116.5 0.916082 -26.53 0.916082 -26.53 0.401014 -116.5
4.07700000 0.401241 -116.6 0.915985 -26.55 0.915985 -26.55 0.401236 -116.5
4.07800000 0.401463 -116.6 0.915887 -26.56 0.915887 -26.56 0.401458 -116.6
4.07900000 0.401685 -116.6 0.915790 -26.58 0.915790 -26.58 0.401680 -116.6
4.08000000 0.401908 -116.6 0.915692 -26.59 0.915692 -26.59 0.401903 -116.6
4.08100000 0.402131 -116.6 0.915595 -26.61 0.915595 -26.61 0.402126 -116.6
4.08200000 0.402354 -116.6 0.915497 -26.62 0.915497 -26.62 0.402349 -116.6
4.08300000 0.402577 -116.6 0.915399 -26.64 0.915399 -26.64 0.402572 -116.6
4.08400000 0.402801 -116.7 0.915300 -26.65 0.915300 -26.65 0.402796 -116.6
4.08500000 0.403025 -116.7 0.915202 -26.66 0.915202 -26.66 0.403020 -116.7
4.08600000 0.403249 -116.7 0.915103 -26.68 0.915103 -26.68 0.403244 -116.7
4.08700000 0.403474 -116.7 0.915004 -26.69 0.915004 -26.69 0.403469 -116.7
4.08800000 0.403698 -116.7 0.914905 -26.71 0.914905 -26.71 0.403693 -116.7
4.08900000 0.403923 -116.7 0.914806 -26.72 0.914806 -26.72 0.403918 -116.7
4.09000000 0.404149 -116.7 0.914707 -26.74 0.914707 -26.74 0.404143 -116.7
4.09100000 0.404374 -116.8 0.914607 -26.75 0.914607 -26.75 0.404369 -116.7
4.09200000 0.404600 -116.8 0.914508 -26.77 0.914508 -26.77 0.404594 -116.8
4.09300000 0.404826 -116.8 0.914408 -26.78 0.914408 -26.78 0.404820 -116.8
4.09400000 0.405052 -116.8 0.914308 -26.80 0.914308 -26.80 0.405046 -116.8
4.09500000 0.405278 -116.8 0.914208 -26.81 0.914208 -26.81 0.405273 -116.8
4.09600000 0.405505 -116.8 0.914107 -26.83 0.914107 -26.83 0.405499 -116.8
4.09700000 0.405732 -116.8 0.914006 -26.84 0.914006 -26.84 0.405726 -116.8
4.09800000 0.405959 -116.9 0.913906 -26.86 0.913906 -26.86 0.405954 -116.8
4.09900000 0.406187 -116.9 0.913805 -26.87 0.913805 -26.87 0.406181 -116.9
4.10000000 0.406415 -116.9 0.913704 -26.89 0.913704 -26.89 0.406409 -116.9
4.10100000 0.406643 -116.9 0.913602 -26.90 0.913602 -26.90 0.406637 -116.9
4.10200000 0.406871 -116.9 0.913501 -26.92 0.913501 -26.92 0.406865 -116.9
4.10300000 0.407099 -116.9 0.913399 -26.93 0.913399 -26.93 0.407093 -116.9
4.10400000 0.407328 -117.0 0.913297 -26.95 0.913297 -26.95 0.407322 -116.9
4.10500000 0.407557 -117.0 0.913195 -26.96 0.913195 -26.96 0.407551 -117.0
4.10600000 0.407787 -117.0 0.913093 -26.98 0.913093 -26.98 0.407780 -117.0
4.10700000 0.408016 -117.0 0.912990 -26.99 0.912990 -26.99 0.408010 -117.0
4.10800000 0.408246 -117.0 0.912888 -27.01 0.912888 -27.01 0.408240 -117.0
4.10900000 0.408476 -117.0 0.912785 -27.02 0.912785 -27.02 0.408470 -117.0
4.11000000 0.408706 -117.0 0.912682 -27.04 0.912682 -27.04 0.408700 -117.0
4.11100000 0.408937 -117.1 0.912579 -27.05 0.912579 -27.05 0.408931 -117.0
4.11200000 0.409168 -117.1 0.912475 -27.07 0.912475 -27.07 0.409162 -117.1
4.11300000 0.409399 -117.1 0.912372 -27.08 0.912372 -27.08 0.409393 -117.1
4.11400000 0.409631 -117.1 0.912268 -27.10 0.912268 -27.10 0.409624 -117.1
4.11500000 0.409862 -117.1 0.912164 -27.12 0.912164 -27.12 0.409856 -117.1
4.11600000 0.410094 -117.1 0.912060 -27.13 0.912060 -27.13 0.410088 -117.1
4.11700000 0.410326 -117.1 0.911955 -27.15 0.911955 -27.15 0.410320 -117.1
4.11800000 0.410559 -117.2 0.911851 -27.16 0.911851 -27.16 0.410552 -117.2
4.11900000 0.410792 -117.2 0.911746 -27.18 0.911746 -27.18 0.410785 -117.2
4.12000000 0.411025 -117.2 0.911641 -27.19 0.911641 -27.19 0.411018 -117.2
4.12100000 0.411258 -117.2 0.911536 -27.21 0.911536 -27.21 0.411251 -117.2
4.12200000 0.411492 -117.2 0.911431 -27.22 0.911431 -27.22 0.411485 -117.2
4.12300000 0.411725 -117.2 0.911325 -27.24 0.911325 -27.24 0.411718 -117.2
4.12400000 0.411960 -117.3 0.911219 -27.25 0.911219 -27.25 0.411953 -117.2
4.12500000 0.412194 -117.3 0.911113 -27.27 0.911113 -27.27 0.412187 -117.3
4.12600000 0.412429 -117.3 0.911007 -27.28 0.911007 -27.28 0.412421 -117.3
4.12700000 0.412664 -117.3 0.910901 -27.30 0.910901 -27.30 0.412656 -117.3
4.12800000 0.412899 -117.3 0.910794 -27.32 0.910794 -27.32 0.412891 -117.3
4.12900000 0.413134 -117.3 0.910688 -27.33 0.910688 -27.33 0.413127 -117.3
4.13000000 0.413370 -117.3 0.910581 -27.35 0.910581 -27.35 0.413363 -117.3
4.13100000 0.413606 -117.4 0.910474 -27.36 0.910474 -27.36 0.413599 -117.4
4.13200000 0.413842 -117.4 0.910366 -27.38 0.910366 -27.38 0.413835 -117.4
4.13300000 0.414079 -117.4 0.910259 -27.39 0.910259 -27.39 0.414071 -117.4
4.13400000 0.414316 -117.4 0.910151 -27.41 0.910151 -27.41 0.414308 -117.4
4.13500000 0.414553 -117.4 0.910043 -27.42 0.910043 -27.42 0.414545 -117.4
4.13600000 0.414790 -117.4 0.909935 -27.44 0.909935 -27.44 0.414783 -117.4
4.13700000 0.415028 -117.5 0.909827 -27.46 0.909827 -27.46 0.415020 -117.5
4.13800000 0.415266 -117.5 0.909718 -27.47 0.909718 -27.47 0.415258 -117.5
4.13900000 0.415504 -117.5 0.909610 -27.49 0.909610 -27.49 0.415496 -117.5
4.14000000 0.415743 -117.5 0.909501 -27.50 0.909501 -27.50 0.415735 -117.5
4.14100000 0.415982 -117.5 0.909392 -27.52 0.909392 -27.52 0.415974 -117.5
4.14200000 0.416221 -117.5 0.909282 -27.53 0.909282 -27.53 0.416213 -117.5
4.14300000 0.416460 -117.5 0.909173 -27.55 0.909173 -27.55 0.416452 -117.5
4.14400000 0.416700 -117.6 0.909063 -27.57 0.909063 -27.57 0.416692 -117.6
4.14500000 0.416940 -117.6 0.908953 -27.58 0.908953 -27.58 0.416932 -117.6
4.14600000 0.417180 -117.6 0.908843 -27.60 0.908843 -27.60 0.417172 -117.6
4.14700000 0.417420 -117.6 0.908732 -27.61 0.908732 -27.61 0.417412 -117.6
4.14800000 0.417661 -117.6 0.908622 -27.63 0.908622 -27.63 0.417653 -117.6
4.14900000 0.417902 -117.6 0.908511 -27.65 0.908511 -27.65 0.417894 -117.6
4.15000000 0.418144 -117.7 0.908400 -27.66 0.908400 -27.66 0.418135 -117.7
4.15100000 0.418385 -117.7 0.908289 -27.68 0.908289 -27.68 0.418377 -117.7
4.15200000 0.418627 -117.7 0.908177 -27.69 0.908177 -27.69 0.418619 -117.7
4.15300000 0.418869 -117.7 0.908066 -27.71 0.908066 -27.71 0.418861 -117.7
4.15400000 0.419112 -117.7 0.907954 -27.73 0.907954 -27.73 0.419104 -117.7
4.15500000 0.419355 -117.7 0.907842 -27.74 0.907842 -27.74 0.419346 -117.7
4.15600000 0.419598 -117.8 0.907729 -27.76 0.907729 -27.76 0.419589 -117.8
4.15700000 0.419841 -117.8 0.907617 -27.77 0.907617 -27.77 0.419833 -117.8
4.15800000 0.420085 -117.8 0.907504 -27.79 0.907504 -27.79 0.420076 -117.8
4.15900000 0.420329 -117.8 0.907391 -27.81 0.907391 -27.81 0.420320 -117.8
4.16000000 0.420573 -117.8 0.907278 -27.82 0.907278 -27.82 0.420565 -117.8
4.16100000 0.420818 -117.8 0.907165 -27.84 0.907165 -27.84 0.420809 -117.8
4.16200000 0.421063 -117.8 0.907051 -27.85 0.907051 -27.85 0.421054 -117.9
4.16300000 0.421308 -117.9 0.906937 -27.87 0.906937 -27.87 0.421299 -117.9
4.16400000 0.421553 -117.9 0.906823 -27.89 0.906823 -27.89 0.421545 -117.9
4.16500000 0.421799 -117.9 0.906709 -27.90 0.906709 -27.90 0.421790 -117.9
4.16600000 0.422045 -117.9 0.906595 -27.92 0.906595 -27.92 0.422036 -117.9
4.16700000 0.422291 -117.9 0.906480 -27.94 0.906480 -27.94 0.422283 -117.9
4.16800000 0.422538 -117.9 0.906365 -27.95 0.906365 -27.95 0.422529 -118.0
4.16900000 0.422785 -118.0 0.906250 -27.97 0.906250 -27.97 0.422776 -118.0
4.17000000 0.423032 -118.0 0.906134 -27.98 0.906134 -27.98 0.423023 -118.0
4.17100000 0.423280 -118.0 0.906019 -28.00 0.906019 -28.00 0.423271 -118.0
4.17200000 0.423528 -118.0 0.905903 -28.02 0.905903 -28.02 0.423519 -118.0
4.17300000 0.423776 -118.0 0.905787 -28.03 0.905787 -28.03 0.423767 -118.0
4.17400000 0.424024 -118.0 0.905671 -28.05 0.905671 -28.05 0.424015 -118.1
4.17500000 0.424273 -118.1 0.905554 -28.07 0.905554 -28.07 0.424264 -118.1
4.17600000 0.424522 -118.1 0.905438 -28.08 0.905438 -28.08 0.424513 -118.1
4.17700000 0.424771 -118.1 0.905321 -28.10 0.905321 -28.10 0.424762 -118.1
4.17800000 0.425021 -118.1 0.905204 -28.12 0.905204 -28.12 0.425012 -118.1
4.17900000 0.425271 -118.1 0.905086 -28.13 0.905086 -28.13 0.425262 -118.1
4.18000000 0.425521 -118.1 0.904969 -28.15 0.904969 -28.15 0.425512 -118.2
4.18100000 0.425772 -118.2 0.904851 -28.17 0.904851 -28.17 0.425762 -118.2
4.18200000 0.426023 -118.2 0.904733 -28.18 0.904733 -28.18 0.426013 -118.2
4.18300000 0.426274 -118.2 0.904614 -28.20 0.904614 -28.20 0.426264 -118.2
4.18400000 0.426526 -118.2 0.904496 -28.22 0.904496 -28.22 0.426516 -118.2
4.18500000 0.426777 -118.2 0.904377 -28.23 0.904377 -28.23 0.426768 -118.2
4.18600000 0.427029 -118.2 0.904258 -28.25 0.904258 -28.25 0.427020 -118.3
4.18700000 0.427282 -118.3 0.904139 -28.27 0.904139 -28.27 0.427272 -118.3
4.18800000 0.427535 -118.3 0.904019 -28.28 0.904019 -28.28 0.427525 -118.3
4.18900000 0.427788 -118.3 0.903899 -28.30 0.903899 -28.30 0.427778 -118.3
4.19000000 0.428041 -118.3 0.903780 -28.32 0.903780 -28.32 0.428031 -118.3
4.19100000 0.428295 -118.3 0.903659 -28.33 0.903659 -28.33 0.428285 -118.3
4.19200000 0.428549 -118.3 0.903539 -28.35 0.903539 -28.35 0.428539 -118.4
4.19300000 0.428803 -118.4 0.903418 -28.37 0.903418 -28.37 0.428793 -118.4
4.19400000 0.429058 -118.4 0.903297 -28.38 0.903297 -28.38 0.429048 -118.4
4.19500000 0.429313 -118.4 0.903176 -28.40 0.903176 -28.40 0.429303 -118.4
4.19600000 0.429568 -118.4 0.903055 -28.42 0.903055 -28.42 0.429558 -118.4
4.19700000 0.429823 -118.4 0.902933 -28.43 0.902933 -28.43 0.429813 -118.4
4.19800000 0.430079 -118.4 0.902811 -28.45 0.902811 -28.45 0.430069 -118.5
4.19900000 0.430336 -118.5 0.902689 -28.47 0.902689 -28.47 0.430325 -118.5
4.20000000 0.430592 -118.5 0.902567 -28.49 0.902567 -28.49 0.430582 -118.5
4.20100000 0.430849 -118.5 0.902444 -28.50 0.902444 -28.50 0.430839 -118.5
4.20200000 0.431106 -118.5 0.902321 -28.52 0.902321 -28.52 0.431096 -118.5
4.20300000 0.431364 -118.5 0.902198 -28.54 0.902198 -28.54 0.431353 -118.5
4.20400000 0.431621 -118.5 0.902075 -28.55 0.902075 -28.55 0.431611 -118.6
4.20500000 0.431880 -118.6 0.901951 -28.57 0.901951 -28.57 0.431869 -118.6
4.20600000 0.432138 -118.6 0.901828 -28.59 0.901828 -28.59 0.432128 -118.6
4.20700000 0.432397 -118.6 0.901704 -28.61 0.901704 -28.61 0.432387 -118.6
4.20800000 0.432656 -118.6 0.901579 -28.62 0.901579 -28.62 0.432646 -118.6
4.20900000 0.432915 -118.6 0.901455 -28.64 0.901455 -28.64 0.432905 -118.6
4.21000000 0.433175 -118.6 0.901330 -28.66 0.901330 -28.66 0.433165 -118.7
4.21100000 0.433435 -118.7 0.901205 -28.67 0.901205 -28.67 0.433425 -118.7
4.21200000 0.433696 -118.7 0.901079 -28.69 0.901079 -28.69 0.433685 -118.7
4.21300000 0.433957 -118.7 0.900954 -28.71 0.900954 -28.71 0.433946 -118.7
4.21400000 0.434218 -118.7 0.900828 -28.73 0.900828 -28.73 0.434207 -118.7
4.21500000 0.434479 -118.7 0.900702 -28.74 0.900702 -28.74 0.434468 -118.8
4.21600000 0.434741 -118.7 0.900576 -28.76 0.900576 -28.76 0.434730 -118.8
4.21700000 0.435003 -118.8 0.900449 -28.78 0.900449 -28.78 0.434992 -118.8
4.21800000 0.435265 -118.8 0.900322 -28.80 0.900322 -28.80 0.435255 -118.8
4.21900000 0.435528 -118.8 0.900195 -28.81 0.900195 -28.81 0.435517 -118.8
4.22000000 0.435791 -118.8 0.900068 -28.83 0.900068 -28.83 0.435780 -118.8
4.22100000 0.436055 -118.8 0.899940 -28.85 0.899940 -28.85 0.436044 -118.9
4.22200000 0.436318 -118.9 0.899812 -28.87 0.899812 -28.87 0.436307 -118.9
4.22300000 0.436582 -118.9 0.899684 -28.88 0.899684 -28.88 0.436572 -118.9
4.22400000 0.436847 -118.9 0.899556 -28.90 0.899556 -28.90 0.436836 -118.9
4.22500000 0.437112 -118.9 0.899427 -28.92 0.899427 -28.92 0.437101 -118.9
4.22600000 0.437377 -118.9 0.899298 -28.94 0.899298 -28.94 0.437366 -118.9
4.22700000 0.437642 -118.9 0.899169 -28.95 0.899169 -28.95 0.437631 -119.0
4.22800000 0.437908 -119.0 0.899039 -28.97 0.899039 -28.97 0.437897 -119.0
4.22900000 0.438174 -119.0 0.898910 -28.99 0.898910 -28.99 0.438163 -119.0
4.23000000 0.438441 -119.0 0.898780 -29.01 0.898780 -29.01 0.438429 -119.0
4.23100000 0.438707 -119.0 0.898649 -29.02 0.898649 -29.02 0.438696 -119.0
4.23200000 0.438975 -119.0 0.898519 -29.04 0.898519 -29.04 0.438963 -119.1
4.23300000 0.439242 -119.0 0.898388 -29.06 0.898388 -29.06 0.439231 -119.1
4.23400000 0.439510 -119.1 0.898257 -29.08 0.898257 -29.08 0.439499 -119.1
4.23500000 0.439778 -119.1 0.898126 -29.10 0.898126 -29.10 0.439767 -119.1
4.23600000 0.440047 -119.1 0.897994 -29.11 0.897994 -29.11 0.440035 -119.1
4.23700000 0.440316 -119.1 0.897862 -29.13 0.897862 -29.13 0.440304 -119.1
4.23800000 0.440585 -119.1 0.897730 -29.15 0.897730 -29.15 0.440573 -119.2
4.23900000 0.440854 -119.2 0.897598 -29.17 0.897598 -29.17 0.440843 -119.2
4.24000000 0.441124 -119.2 0.897465 -29.18 0.897465 -29.18 0.441113 -119.2
4.24100000 0.441395 -119.2 0.897332 -29.20 0.897332 -29.20 0.441383 -119.2
4.24200000 0.441665 -119.2 0.897199 -29.22 0.897199 -29.22 0.441654 -119.2
4.24300000 0.441936 -119.2 0.897065 -29.24 0.897065 -29.24 0.441925 -119.3
4.24400000 0.442208 -119.2 0.896932 -29.26 0.896932 -29.26 0.442196 -119.3
4.24500000 0.442479 -119.3 0.896798 -29.28 0.896798 -29.28 0.442468 -119.3
4.24600000 0.442751 -119.3 0.896663 -29.29 0.896663 -29.29 0.442740 -119.3
4.24700000 0.443024 -119.3 0.896529 -29.31 0.896529 -29.31 0.443012 -119.3
4.24800000 0.443296 -119.3 0.896394 -29.33 0.896394 -29.33 0.443285 -119.3
4.24900000 0.443570 -119.3 0.896258 -29.35 0.896258 -29.35 0.443558 -119.4
4.25000000 0.443843 -119.3 0.896123 -29.37 0.896123 -29.37 0.443831 -119.4
4.25100000 0.444117 -119.4 0.895987 -29.38 0.895987 -29.38 0.444105 -119.4
4.25200000 0.444391 -119.4 0.895851 -29.40 0.895851 -29.40 0.444379 -119.4
4.25300000 0.444666 -119.4 0.895715 -29.42 0.895715 -29.42 0.444654 -119.4
4.25400000 0.444940 -119.4 0.895578 -29.44 0.895578 -29.44 0.444929 -119.5
4.25500000 0.445216 -119.4 0.895441 -29.46 0.895441 -29.46 0.445204 -119.5
4.25600000 0.445491 -119.5 0.895304 -29.48 0.895304 -29.48 0.445480 -119.5
4.25700000 0.445767 -119.5 0.895167 -29.49 0.895167 -29.49 0.445756 -119.5
4.25800000 0.446044 -119.5 0.895029 -29.51 0.895029 -29.51 0.446032 -119.5
4.25900000 0.446321 -119.5 0.894891 -29.53 0.894891 -29.53 0.446309 -119.5
4.26000000 0.446598 -119.5 0.894753 -29.55 0.894753 -29.55 0.446586 -119.6
4.26100000 0.446875 -119.5 0.894614 -29.57 0.894614 -29.57 0.446863 -119.6
4.26200000 0.447153 -119.6 0.894475 -29.59 0.894475 -29.59 0.447141 -119.6
4.26300000 0.447431 -119.6 0.894336 -29.60 0.894336 -29.60 0.447419 -119.6
4.26400000 0.447710 -119.6 0.894196 -29.62 0.894196 -29.62 0.447698 -119.6
4.26500000 0.447989 -119.6 0.894057 -29.64 0.894057 -29.64 0.447977 -119.7
4.26600000 0.448268 -119.6 0.893916 -29.66 0.893916 -29.66 0.448256 -119.7
4.26700000 0.448548 -119.7 0.893776 -29.68 0.893776 -29.68 0.448535 -119.7
4.26800000 0.448828 -119.7 0.893635 -29.70 0.893635 -29.70 0.448816 -119.7
4.26900000 0.449108 -119.7 0.893494 -29.72 0.893494 -29.72 0.449096 -119.7
4.27000000 0.449389 -119.7 0.893353 -29.74 0.893353 -29.74 0.449377 -119.8
4.27100000 0.449670 -119.7 0.893212 -29.75 0.893212 -29.75 0.449658 -119.8
4.27200000 0.449952 -119.8 0.893070 -29.77 0.893070 -29.77 0.449939 -119.8
4.27300000 0.450234 -119.8 0.892927 -29.79 0.892927 -29.79 0.450221 -119.8
4.27400000 0.450516 -119.8 0.892785 -29.81 0.892785 -29.81 0.450504 -119.8
4.27500000 0.450799 -119.8 0.892642 -29.83 0.892642 -29.83 0.450786 -119.8
4.27600000 0.451082 -119.8 0.892499 -29.85 0.892499 -29.85 0.451069 -119.9
4.27700000 0.451365 -119.8 0.892356 -29.87 0.892356 -29.87 0.451353 -119.9
4.27800000 0.451649 -119.9 0.892212 -29.89 0.892212 -29.89 0.451636 -119.9
4.27900000 0.451933 -119.9 0.892068 -29.91 0.892068 -29.91 0.451921 -119.9
4.28000000 0.452218 -119.9 0.891924 -29.92 0.891924 -29.92 0.452205 -119.9
4.28100000 0.452503 -119.9 0.891779 -29.94 0.891779 -29.94 0.452490 -120.0
4.28200000 0.452788 -119.9 0.891634 -29.96 0.891634 -29.96 0.452776 -120.0
4.28300000 0.453074 -120.0 0.891489 -29.98 0.891489 -29.98 0.453061 -120.0
4.28400000 0.453360 -120.0 0.891343 -30.00 0.891343 -30.00 0.453347 -120.0
4.28500000 0.453646 -120.0 0.891197 -30.02 0.891197 -30.02 0.453634 -120.0
4.28600000 0.453933 -120.0 0.891051 -30.04 0.891051 -30.04 0.453921 -120.1
4.28700000 0.454221 -120.0 0.890904 -30.06 0.890904 -30.06 0.454208 -120.1
4.28800000 0.454508 -120.1 0.890758 -30.08 0.890758 -30.08 0.454496 -120.1
4.28900000 0.454796 -120.1 0.890610 -30.10 0.890610 -30.10 0.454784 -120.1
4.29000000 0.455085 -120.1 0.890463 -30.12 0.890463 -30.12 0.455072 -120.1
4.29100000 0.455374 -120.1 0.890315 -30.14 0.890315 -30.14 0.455361 -120.2
4.29200000 0.455663 -120.1 0.890167 -30.15 0.890167 -30.15 0.455650 -120.2
4.29300000 0.455953 -120.1 0.890019 -30.17 0.890019 -30.17 0.455940 -120.2
4.29400000 0.456243 -120.2 0.889870 -30.19 0.889870 -30.19 0.456230 -120.2
4.29500000 0.456533 -120.2 0.889721 -30.21 0.889721 -30.21 0.456520 -120.2
4.29600000 0.456824 -120.2 0.889571 -30.23 0.889571 -30.23 0.456811 -120.3
4.29700000 0.457115 -120.2 0.889422 -30.25 0.889422 -30.25 0.457102 -120.3
4.29800000 0.457407 -120.2 0.889272 -30.27 0.889272 -30.27 0.457394 -120.3
4.29900000 0.457699 -120.3 0.889121 -30.29 0.889121 -30.29 0.457686 -120.3
4.30000000 0.457991 -120.3 0.888970 -30.31 0.888970 -30.31 0.457979 -120.3
4.30100000 0.458284 -120.3 0.888819 -30.33 0.888819 -30.33 0.458271 -120.4
4.30200000 0.458578 -120.3 0.888668 -30.35 0.888668 -30.35 0.458565 -120.4
4.30300000 0.458871 -120.3 0.888516 -30.37 0.888516 -30.37 0.458858 -120.4
4.30400000 0.459165 -120.4 0.888364 -30.39 0.888364 -30.39 0.459152 -120.4
4.30500000 0.459460 -120.4 0.888212 -30.41 0.888212 -30.41 0.459447 -120.4
4.30600000 0.459755 -120.4 0.888059 -30.43 0.888059 -30.43 0.459742 -120.5
4.30700000 0.460050 -120.4 0.887906 -30.45 0.887906 -30.45 0.460037 -120.5
4.30800000 0.460346 -120.4 0.887753 -30.47 0.887753 -30.47 0.460333 -120.5
4.30900000 0.460642 -120.5 0.887599 -30.49 0.887599 -30.49 0.460629 -120.5
4.31000000 0.460938 -120.5 0.887445 -30.51 0.887445 -30.51 0.460925 -120.5
4.31100000 0.461235 -120.5 0.887290 -30.53 0.887290 -30.53 0.461222 -120.6
4.31200000 0.461532 -120.5 0.887136 -30.55 0.887136 -30.55 0.461519 -120.6
4.31300000 0.461830 -120.5 0.886980 -30.57 0.886980 -30.57 0.461817 -120.6
4.31400000 0.462128 -120.6 0.886825 -30.59 0.886825 -30.59 0.462115 -120.6
4.31500000 0.462427 -120.6 0.886669 -30.61 0.886669 -30.61 0.462414 -120.6
4.31600000 0.462726 -120.6 0.886513 -30.63 0.886513 -30.63 0.462713 -120.7
4.31700000 0.463025 -120.6 0.886357 -30.65 0.886357 -30.65 0.463012 -120.7
4.31800000 0.463325 -120.6 0.886200 -30.67 0.886200 -30.67 0.463312 -120.7
4.31900000 0.463625 -120.7 0.886043 -30.69 0.886043 -30.69 0.463612 -120.7
4.32000000 0.463926 -120.7 0.885885 -30.71 0.885885 -30.71 0.463913 -120.7
4.32100000 0.464227 -120.7 0.885727 -30.73 0.885727 -30.73 0.464214 -120.8
4.32200000 0.464529 -120.7 0.885569 -30.75 0.885569 -30.75 0.464515 -120.8
4.32300000 0.464831 -120.7 0.885410 -30.77 0.885410 -30.77 0.464817 -120.8
4.32400000 0.465133 -120.8 0.885251 -30.79 0.885251 -30.79 0.465120 -120.8
4.32500000 0.465436 -120.8 0.885092 -30.81 0.885092 -30.81 0.465422 -120.8
4.32600000 0.465739 -120.8 0.884932 -30.83 0.884932 -30.83 0.465726 -120.9
4.32700000 0.466043 -120.8 0.884772 -30.85 0.884772 -30.85 0.466029 -120.9
4.32800000 0.466347 -120.8 0.884612 -30.87 0.884612 -30.87 0.466333 -120.9
4.32900000 0.466651 -120.9 0.884451 -30.89 0.884451 -30.89 0.466638 -120.9
4.33000000 0.466956 -120.9 0.884290 -30.91 0.884290 -30.91 0.466943 -120.9
4.33100000 0.467262 -120.9 0.884129 -30.93 0.884129 -30.93 0.467248 -121.0
4.33200000 0.467567 -120.9 0.883967 -30.95 0.883967 -30.95 0.467554 -121.0
4.33300000 0.467874 -120.9 0.883805 -30.97 0.883805 -30.97 0.467860 -121.0
4.33400000 0.468180 -121.0 0.883642 -30.99 0.883642 -30.99 0.468167 -121.0
4.33500000 0.468487 -121.0 0.883479 -31.01 0.883479 -31.01 0.468474 -121.0
4.33600000 0.468795 -121.0 0.883316 -31.03 0.883316 -31.03 0.468781 -121.1
4.33700000 0.469103 -121.0 0.883152 -31.06 0.883152 -31.06 0.469089 -121.1
4.33800000 0.469411 -121.0 0.882988 -31.08 0.882988 -31.08 0.469398 -121.1
4.33900000 0.469720 -121.1 0.882824 -31.10 0.882824 -31.10 0.469707 -121.1
4.34000000 0.470029 -121.1 0.882659 -31.12 0.882659 -31.12 0.470016 -121.1
4.34100000 0.470339 -121.1 0.882494 -31.14 0.882494 -31.14 0.470326 -121.2
4.34200000 0.470649 -121.1 0.882328 -31.16 0.882328 -31.16 0.470636 -121.2
4.34300000 0.470960 -121.1 0.882162 -31.18 0.882162 -31.18 0.470946 -121.2
4.34400000 0.471271 -121.2 0.881996 -31.20 0.881996 -31.20 0.471257 -121.2
4.34500000 0.471583 -121.2 0.881829 -31.22 0.881829 -31.22 0.471569 -121.3
4.34600000 0.471894 -121.2 0.881662 -31.24 0.881662 -31.24 0.471881 -121.3
4.34700000 0.472207 -121.2 0.881495 -31.26 0.881495 -31.26 0.472193 -121.3
4.34800000 0.472520 -121.3 0.881327 -31.29 0.881327 -31.29 0.472506 -121.3
4.34900000 0.472833 -121.3 0.881159 -31.31 0.881159 -31.31 0.472819 -121.3
4.35000000 0.473147 -121.3 0.880990 -31.33 0.880990 -31.33 0.473133 -121.4
4.35100000 0.473461 -121.3 0.880821 -31.35 0.880821 -31.35 0.473447 -121.4
4.35200000 0.473776 -121.3 0.880652 -31.37 0.880652 -31.37 0.473762 -121.4
4.35300000 0.474091 -121.4 0.880482 -31.39 0.880482 -31.39 0.474077 -121.4
4.35400000 0.474406 -121.4 0.880312 -31.41 0.880312 -31.41 0.474393 -121.4
4.35500000 0.474722 -121.4 0.880141 -31.43 0.880141 -31.43 0.474709 -121.5
4.35600000 0.475039 -121.4 0.879970 -31.45 0.879970 -31.45 0.475025 -121.5
4.35700000 0.475356 -121.4 0.879799 -31.48 0.879799 -31.48 0.475342 -121.5
4.35800000 0.475673 -121.5 0.879627 -31.50 0.879627 -31.50 0.475659 -121.5
4.35900000 0.475991 -121.5 0.879455 -31.52 0.879455 -31.52 0.475977 -121.6
4.36000000 0.476309 -121.5 0.879282 -31.54 0.879282 -31.54 0.476296 -121.6
4.36100000 0.476628 -121.5 0.879109 -31.56 0.879109 -31.56 0.476614 -121.6
4.36200000 0.476948 -121.5 0.878936 -31.58 0.878936 -31.58 0.476934 -121.6
4.36300000 0.477267 -121.6 0.878762 -31.61 0.878762 -31.61 0.477253 -121.6
4.36400000 0.477587 -121.6 0.878588 -31.63 0.878588 -31.63 0.477574 -121.7
4.36500000 0.477908 -121.6 0.878413 -31.65 0.878413 -31.65 0.477894 -121.7
4.36600000 0.478229 -121.6 0.878238 -31.67 0.878238 -31.67 0.478215 -121.7
4.36700000 0.478551 -121.7 0.878063 -31.69 0.878063 -31.69 0.478537 -121.7
4.36800000 0.478873 -121.7 0.877887 -31.71 0.877887 -31.71 0.478859 -121.8
4.36900000 0.479195 -121.7 0.877711 -31.74 0.877711 -31.74 0.479182 -121.8
4.37000000 0.479519 -121.7 0.877534 -31.76 0.877534 -31.76 0.479505 -121.8
4.37100000 0.479842 -121.7 0.877357 -31.78 0.877357 -31.78 0.479828 -121.8
4.37200000 0.480166 -121.8 0.877180 -31.80 0.877180 -31.80 0.480152 -121.8
4.37300000 0.480490 -121.8 0.877002 -31.82 0.877002 -31.82 0.480476 -121.9
4.37400000 0.480815 -121.8 0.876824 -31.84 0.876824 -31.84 0.480801 -121.9
4.37500000 0.481141 -121.8 0.876645 -31.87 0.876645 -31.87 0.481127 -121.9
4.37600000 0.481467 -121.9 0.876466 -31.89 0.876466 -31.89 0.481453 -121.9
4.37700000 0.481793 -121.9 0.876286 -31.91 0.876286 -31.91 0.481779 -121.9
4.37800000 0.482120 -121.9 0.876106 -31.93 0.876106 -31.93 0.482106 -122.0
4.37900000 0.482447 -121.9 0.875926 -31.96 0.875926 -31.96 0.482433 -122.0
4.38000000 0.482775 -121.9 0.875745 -31.98 0.875745 -31.98 0.482761 -122.0
4.38100000 0.483103 -122.0 0.875564 -32.00 0.875564 -32.00 0.483089 -122.0
4.38200000 0.483432 -122.0 0.875382 -32.02 0.875382 -32.02 0.483418 -122.1
4.38300000 0.483761 -122.0 0.875200 -32.04 0.875200 -32.04 0.483747 -122.1
4.38400000 0.484091 -122.0 0.875017 -32.07 0.875017 -32.07 0.484077 -122.1
4.38500000 0.484421 -122.0 0.874834 -32.09 0.874834 -32.09 0.484407 -122.1
4.38600000 0.484752 -122.1 0.874651 -32.11 0.874651 -32.11 0.484738 -122.2
4.38700000 0.485083 -122.1 0.874467 -32.13 0.874467 -32.13 0.485069 -122.2
4.38800000 0.485415 -122.1 0.874283 -32.16 0.874283 -32.16 0.485401 -122.2
4.38900000 0.485747 -122.1 0.874098 -32.18 0.874098 -32.18 0.485733 -122.2
4.39000000 0.486080 -122.2 0.873913 -32.20 0.873913 -32.20 0.486066 -122.2
4.39100000 0.486413 -122.2 0.873727 -32.22 0.873727 -32.22 0.486399 -122.3
4.39200000 0.486747 -122.2 0.873541 -32.25 0.873541 -32.25 0.486733 -122.3