! Sonnet Data File
! From: emgraph Version : 16.52
! From Emgraph Data: 171027_mm_squiggleX_Res5G_12_Odd2
! Data File Written: 11/20/2017 10:36:56
!< HDATE 11/20/2017 10:10:04
!< MDATE 11/20/2017 10:10:04
!< PARAMS
!< dCr = 12.0
!< Squiggle_length = 16.0
!< END PARAMS
# GHZ S MA R 50.00000
4.000000000000000 0.0310484777717 -100.1765356716 0.9995170039243 -10.44025514524 0.9995170039244 -10.44025514522 0.0310484690568 -100.7071884428
!< P1 F=4.0 Eeff=(7.89476189 -3.6406e-5) Z0=(50.4656918 1.16279e-4) R=0.0 C=0.0 
!< P2 F=4.0 Eeff=(7.89476189 -3.6406e-5) Z0=(50.4656918 1.16279e-4) R=0.0 C=0.0 
4.001000000000000 0.0310975261717 -100.1802229748 0.9995155141673 -10.44525669314 0.9995155141673 -10.44525669314 0.0310975472121 -100.7133898033
4.002000000000001 0.0311466638818 -100.1839163390 0.9995140189445 -10.45026337026 0.9995140189445 -10.45026337026 0.0311467145992 -100.7195961989
4.003000000000000 0.0311958911180 -100.1876157734 0.9995125183607 -10.45527520260 0.9995125183607 -10.45527520260 0.0311959714345 -100.7258076402
4.004000000000000 0.0312452080979 -100.1913212884 0.9995110123960 -10.46029220266 0.9995110123960 -10.46029220266 0.0312453179356 -100.7320241387
4.005000000000000 0.0312946150394 -100.1950328940 0.9995095010305 -10.46531438297 0.9995095010305 -10.46531438297 0.0312947543205 -100.7382457058
4.006000000000000 0.0313441121614 -100.1987506006 0.9995079842442 -10.47034175613 0.9995079842442 -10.47034175613 0.0313442808080 -100.7444723530
4.007000000000001 0.0313936996832 -100.2024744186 0.9995064620168 -10.47537433474 0.9995064620168 -10.47537433474 0.0313938976177 -100.7507040920
4.008000000000000 0.0314433778251 -100.2062043584 0.9995049343282 -10.48041213147 0.9995049343282 -10.48041213147 0.0314436049699 -100.7569409343
4.009000000000000 0.0314931468080 -100.2099404304 0.9995034011581 -10.48545515903 0.9995034011581 -10.48545515903 0.0314934030856 -100.7631828916
4.010000000000001 0.0315430068535 -100.2136826451 0.9995018624861 -10.49050343015 0.9995018624861 -10.49050343015 0.0315432921863 -100.7694299756
4.011000000000000 0.0315929581840 -100.2174310129 0.9995003182916 -10.49555695762 0.9995003182916 -10.49555695762 0.0315932724946 -100.7756821980
4.012000000000000 0.0316430010225 -100.2211855446 0.9994987685542 -10.50061575426 0.9994987685542 -10.50061575426 0.0316433442335 -100.7819395708
4.013000000000000 0.0316931355928 -100.2249462507 0.9994972132530 -10.50567983295 0.9994972132530 -10.50567983295 0.0316935076269 -100.7882021056
4.014000000000000 0.0317433621194 -100.2287131420 0.9994956523674 -10.51074920660 0.9994956523674 -10.51074920660 0.0317437628995 -100.7944698145
4.015000000000001 0.0317936808276 -100.2324862291 0.9994940858765 -10.51582388816 0.9994940858765 -10.51582388816 0.0317941102764 -100.8007427093
4.016000000000000 0.0318440919434 -100.2362655227 0.9994925137593 -10.52090389062 0.9994925137593 -10.52090389062 0.0318445499838 -100.8070208020
4.017000000000000 0.0318945956936 -100.2400510339 0.9994909359947 -10.52598922703 0.9994909359947 -10.52598922703 0.0318950822486 -100.8133041047
4.018000000000001 0.0319451923055 -100.2438427733 0.9994893525617 -10.53107991046 0.9994893525617 -10.53107991046 0.0319457072981 -100.8195926294
4.019000000000000 0.0319958820074 -100.2476407519 0.9994877634389 -10.53617595404 0.9994877634389 -10.53617595404 0.0319964253607 -100.8258863883
4.020000000000000 0.0320466650282 -100.2514449807 0.9994861686050 -10.54127737093 0.9994861686050 -10.54127737093 0.0320472366654 -100.8321853935
4.021000000000000 0.0320975415978 -100.2552554707 0.9994845680385 -10.54638417435 0.9994845680385 -10.54638417435 0.0320981414420 -100.8384896574
4.022000000000000 0.0321485119464 -100.2590722330 0.9994829617180 -10.55149637754 0.9994829617180 -10.55149637754 0.0321491399211 -100.8447991920
4.023000000000001 0.0321995763055 -100.2628952787 0.9994813496218 -10.55661399381 0.9994813496218 -10.55661399381 0.0322002323339 -100.8511140098
4.024000000000000 0.0322507349069 -100.2667246189 0.9994797317282 -10.56173703649 0.9994797317282 -10.56173703649 0.0322514189124 -100.8574341232
4.025000000000000 0.0323019879834 -100.2705602648 0.9994781080153 -10.56686551897 0.9994781080153 -10.56686551897 0.0323026998895 -100.8637595445
4.026000000000001 0.0323533357685 -100.2744022278 0.9994764784611 -10.57199945468 0.9994764784611 -10.57199945468 0.0323540754988 -100.8700902862
4.027000000000000 0.0324047784965 -100.2782505190 0.9994748430438 -10.57713885710 0.9994748430438 -10.57713885710 0.0324055459746 -100.8764263608
4.028000000000000 0.0324563164024 -100.2821051500 0.9994732017410 -10.58228373973 0.9994732017410 -10.58228373973 0.0324571115521 -100.8827677809
4.029000000000000 0.0325079497222 -100.2859661320 0.9994715545306 -10.58743411614 0.9994715545306 -10.58743411614 0.0325087724670 -100.8891145591
4.030000000000000 0.0325596786923 -100.2898334766 0.9994699013903 -10.59258999994 0.9994699013903 -10.59258999994 0.0325605289562 -100.8954667080
4.031000000000001 0.0326115035502 -100.2937071953 0.9994682422975 -10.59775140479 0.9994682422975 -10.59775140479 0.0326123812570 -100.9018242404
4.032000000000000 0.0326634245340 -100.2975872996 0.9994665772299 -10.60291834437 0.9994665772299 -10.60291834437 0.0326643296077 -100.9081871691
4.033000000000000 0.0327154418828 -100.3014738012 0.9994649061646 -10.60809083244 0.9994649061646 -10.60809083244 0.0327163742474 -100.9145555067
4.034000000000000 0.0327675558362 -100.3053667116 0.9994632290790 -10.61326888277 0.9994632290790 -10.61326888277 0.0327685154158 -100.9209292662
4.035000000000000 0.0328197666349 -100.3092660427 0.9994615459503 -10.61845250921 0.9994615459503 -10.61845250921 0.0328207533536 -100.9273084606
4.036000000000000 0.0328720745201 -100.3131718061 0.9994598567553 -10.62364172564 0.9994598567553 -10.62364172564 0.0328730883021 -100.9336931026
4.037000000000000 0.0329244797340 -100.3170840137 0.9994581614712 -10.62883654598 0.9994581614712 -10.62883654598 0.0329255205037 -100.9400832055
4.038000000000000 0.0329769825197 -100.3210026775 0.9994564600747 -10.63403698420 0.9994564600747 -10.63403698420 0.0329780502013 -100.9464787821
4.039000000000001 0.0330295831208 -100.3249278092 0.9994547525425 -10.63924305433 0.9994547525425 -10.63924305433 0.0330306776387 -100.9528798457
4.040000000000000 0.0330822817819 -100.3288594209 0.9994530388513 -10.64445477043 0.9994530388513 -10.64445477043 0.0330834030607 -100.9592864093
4.041000000000000 0.0331350787484 -100.3327975245 0.9994513189776 -10.64967214661 0.9994513189776 -10.64967214661 0.0331362267126 -100.9656984863
4.042000000000000 0.0331879742665 -100.3367421323 0.9994495928977 -10.65489519704 0.9994495928977 -10.65489519704 0.0331891488407 -100.9721160898
4.043000000000000 0.0332409685833 -100.3406932562 0.9994478605880 -10.66012393593 0.9994478605880 -10.66012393593 0.0332421696921 -100.9785392332
4.044000000000000 0.0332940619466 -100.3446509085 0.9994461220246 -10.66535837752 0.9994461220246 -10.66535837752 0.0332952895148 -100.9849679298
4.045000000000000 0.0333472546051 -100.3486151015 0.9994443771836 -10.67059853612 0.9994443771836 -10.67059853612 0.0333485085575 -100.9914021931
4.046000000000000 0.0334005468083 -100.3525858473 0.9994426260410 -10.67584442608 0.9994426260410 -10.67584442608 0.0334018270698 -100.9978420365
4.047000000000001 0.0334539388066 -100.3565631584 0.9994408685726 -10.68109606181 0.9994408685726 -10.68109606181 0.0334552453021 -101.0042874736
4.048000000000000 0.0335074308511 -100.3605470471 0.9994391047542 -10.68635345775 0.9994391047542 -10.68635345775 0.0335087635056 -101.0107385179
4.049000000000000 0.0335610231938 -100.3645375259 0.9994373345614 -10.69161662839 0.9994373345614 -10.69161662839 0.0335623819325 -101.0171951831
4.050000000000000 0.0336147160878 -100.3685346074 0.9994355579696 -10.69688558828 0.9994355579696 -10.69688558828 0.0336161008357 -101.0236574828
4.051000000000000 0.0336685097866 -100.3725383039 0.9994337749544 -10.70216035202 0.9994337749544 -10.70216035202 0.0336699204689 -101.0301254307
4.052000000000000 0.0337224045449 -100.3765486283 0.9994319854909 -10.70744093425 0.9994319854909 -10.70744093425 0.0337238410870 -101.0365990407
4.053000000000000 0.0337764006181 -100.3805655931 0.9994301895544 -10.71272734966 0.9994301895544 -10.71272734966 0.0337778629452 -101.0430783266
4.054000000000000 0.0338304982625 -100.3845892110 0.9994283871198 -10.71801961299 0.9994283871198 -10.71801961299 0.0338319863001 -101.0495633023
4.055000000000001 0.0338846977353 -100.3886194949 0.9994265781622 -10.72331773903 0.9994265781622 -10.72331773903 0.0338862114089 -101.0560539817
4.056000000000000 0.0339389992944 -100.3926564575 0.9994247626564 -10.72862174263 0.9994247626564 -10.72862174263 0.0339405385295 -101.0625503789
4.057000000000000 0.0339934031989 -100.3967001117 0.9994229405771 -10.73393163868 0.9994229405771 -10.73393163868 0.0339949679211 -101.0690525078
4.058000000000000 0.0340479097084 -100.4007504706 0.9994211118988 -10.73924744212 0.9994211118988 -10.73924744212 0.0340494998434 -101.0755603826
4.059000000000000 0.0341025190837 -100.4048075470 0.9994192765960 -10.74456916795 0.9994192765960 -10.74456916795 0.0341041345572 -101.0820740175
4.060000000000000 0.0341572315862 -100.4088713541 0.9994174346431 -10.74989683120 0.9994174346431 -10.74989683120 0.0341588723241 -101.0885934267
4.061000000000000 0.0342120474784 -100.4129419049 0.9994155860142 -10.75523044698 0.9994155860142 -10.75523044698 0.0342137134065 -101.0951186244
4.062000000000000 0.0342669670236 -100.4170192126 0.9994137306836 -10.76057003043 0.9994137306836 -10.76057003043 0.0342686580678 -101.1016496250
4.063000000000001 0.0343219904860 -100.4211032905 0.9994118686252 -10.76591559674 0.9994118686252 -10.76591559674 0.0343237065724 -101.1081864429
4.064000000000000 0.0343771181307 -100.4251941517 0.9994099998129 -10.77126716117 0.9994099998129 -10.77126716117 0.0343788591853 -101.1147290925
4.065000000000000 0.0344323502237 -100.4292918097 0.9994081242203 -10.77662473902 0.9994081242203 -10.77662473902 0.0344341161727 -101.1212775883
4.066000000000000 0.0344876870319 -100.4333962779 0.9994062418212 -10.78198834565 0.9994062418212 -10.78198834565 0.0344894778016 -101.1278319448
4.067000000000000 0.0345431288231 -100.4375075696 0.9994043525890 -10.78735799645 0.9994043525890 -10.78735799645 0.0345449443397 -101.1343921767
4.068000000000001 0.0345986758661 -100.4416256985 0.9994024564971 -10.79273370690 0.9994024564971 -10.79273370690 0.0346005160559 -101.1409582986
4.069000000000000 0.0346543284305 -100.4457506780 0.9994005535187 -10.79811549249 0.9994005535187 -10.79811549249 0.0346561932200 -101.1475303253
4.070000000000000 0.0347100867868 -100.4498825217 0.9993986436270 -10.80350336879 0.9993986436270 -10.80350336879 0.0347119761025 -101.1541082715
4.071000000000001 0.0347659512067 -100.4540212435 0.9993967267949 -10.80889735143 0.9993967267949 -10.80889735143 0.0347678649750 -101.1606921520
4.072000000000000 0.0348219219623 -100.4581668569 0.9993948029953 -10.81429745607 0.9993948029953 -10.81429745607 0.0348238601100 -101.1672819818
4.073000000000000 0.0348779993272 -100.4623193758 0.9993928722010 -10.81970369844 0.9993928722010 -10.81970369844 0.0348799617809 -101.1738777758
4.074000000000000 0.0349341835756 -100.4664788141 0.9993909343846 -10.82511609432 0.9993909343846 -10.82511609432 0.0349361702621 -101.1804795490
4.075000000000000 0.0349904749828 -100.4706451857 0.9993889895186 -10.83053465954 0.9993889895186 -10.83053465954 0.0349924858288 -101.1870873165
4.076000000000001 0.0350468738248 -100.4748185045 0.9993870375752 -10.83595940999 0.9993870375752 -10.83595940999 0.0350489087573 -101.1937010933
4.077000000000000 0.0351033803789 -100.4789987846 0.9993850785267 -10.84139036161 0.9993850785267 -10.84139036161 0.0351054393248 -101.2003208948
4.078000000000000 0.0351599949230 -100.4831860401 0.9993831123453 -10.84682753039 0.9993831123453 -10.84682753039 0.0351620778093 -101.2069467361
4.079000000000001 0.0352167177363 -100.4873802851 0.9993811390029 -10.85227093240 0.9993811390029 -10.85227093240 0.0352188244901 -101.2135786324
4.080000000000000 0.0352735490986 -100.4915815339 0.9993791584712 -10.85772058374 0.9993791584712 -10.85772058374 0.0352756796472 -101.2202165993
4.081000000000000 0.0353304892910 -100.4957898007 0.9993771707220 -10.86317650058 0.9993771707220 -10.86317650058 0.0353326435615 -101.2268606520
4.082000000000000 0.0353875385954 -100.5000050998 0.9993751757269 -10.86863869912 0.9993751757269 -10.86863869912 0.0353897165151 -101.2335108061
4.083000000000000 0.0354446972946 -100.5042274457 0.9993731734573 -10.87410719566 0.9993731734573 -10.87410719566 0.0354468987910 -101.2401670772
4.084000000000001 0.0355019656726 -100.5084568528 0.9993711638843 -10.87958200651 0.9993711638843 -10.87958200651 0.0355041906729 -101.2468294807
4.085000000000000 0.0355593440141 -100.5126933356 0.9993691469793 -10.88506314807 0.9993691469793 -10.88506314807 0.0355615924460 -101.2534980324
4.086000000000000 0.0356168326051 -100.5169369087 0.9993671227133 -10.89055063679 0.9993671227133 -10.89055063679 0.0356191043960 -101.2601727479
4.087000000000001 0.0356744317322 -100.5211875868 0.9993650910570 -10.89604448916 0.9993650910570 -10.89604448916 0.0356767268099 -101.2668536431
4.088000000000000 0.0357321416835 -100.5254453846 0.9993630519812 -10.90154472174 0.9993630519812 -10.90154472174 0.0357344599756 -101.2735407339
4.089000000000000 0.0357899627475 -100.5297103167 0.9993610054565 -10.90705135116 0.9993610054565 -10.90705135116 0.0357923041819 -101.2802340360
4.090000000000000 0.0358478952143 -100.5339823981 0.9993589514535 -10.91256439408 0.9993589514535 -10.91256439408 0.0358502597187 -101.2869335654
4.091000000000000 0.0359059393746 -100.5382616436 0.9993568899423 -10.91808386725 0.9993568899423 -10.91808386725 0.0359083268770 -101.2936393383
4.092000000000001 0.0359640955203 -100.5425480683 0.9993548208932 -10.92360978745 0.9993548208932 -10.92360978745 0.0359665059485 -101.3003513706
4.093000000000000 0.0360223639441 -100.5468416870 0.9993527442762 -10.92914217153 0.9993527442762 -10.92914217153 0.0360247972264 -101.3070696785
4.094000000000000 0.0360807449400 -100.5511425149 0.9993506600611 -10.93468103640 0.9993506600611 -10.93468103640 0.0360832010044 -101.3137942782
4.095000000000001 0.0361392388029 -100.5554505672 0.9993485682178 -10.94022639903 0.9993485682178 -10.94022639903 0.0361417175775 -101.3205251860
4.096000000000000 0.0361978458287 -100.5597658590 0.9993464687158 -10.94577827644 0.9993464687158 -10.94577827644 0.0362003472418 -101.3272624183
4.097000000000000 0.0362565663143 -100.5640884056 0.9993443615247 -10.95133668573 0.9993443615247 -10.95133668573 0.0362590902943 -101.3340059914
4.098000000000000 0.0363154005577 -100.5684182224 0.9993422466135 -10.95690164404 0.9993422466135 -10.95690164404 0.0363179470330 -101.3407559218
4.099000000000000 0.0363743488581 -100.5727553248 0.9993401239517 -10.96247316857 0.9993401239517 -10.96247316857 0.0363769177570 -101.3475122259
4.100000000000001 0.0364334115154 -100.5770997281 0.9993379935081 -10.96805127660 0.9993379935081 -10.96805127660 0.0364360027665 -101.3542749205
4.101000000000000 0.0364925888308 -100.5814514480 0.9993358552515 -10.97363598544 0.9993358552515 -10.97363598544 0.0364952023627 -101.3610440222
4.102000000000000 0.0365518811065 -100.5858105001 0.9993337091509 -10.97922731250 0.9993337091509 -10.97922731250 0.0365545168479 -101.3678195476
4.103000000000001 0.0366112886457 -100.5901769000 0.9993315551746 -10.98482527522 0.9993315551746 -10.98482527522 0.0366139465254 -101.3746015136
4.104000000000000 0.0366708117529 -100.5945506634 0.9993293932911 -10.99042989111 0.9993293932911 -10.99042989111 0.0366734916995 -101.3813899369
4.105000000000000 0.0367304507332 -100.5989318061 0.9993272234686 -10.99604117774 0.9993272234686 -10.99604117774 0.0367331526757 -101.3881848346
4.106000000000000 0.0367902058933 -100.6033203441 0.9993250456753 -11.00165915276 0.9993250456753 -11.00165915276 0.0367929297606 -101.3949862236
4.107000000000000 0.0368500775406 -100.6077162932 0.9993228598792 -11.00728383385 0.9993228598792 -11.00728383385 0.0368528232618 -101.4017941209
4.108000000000001 0.0369100659839 -100.6121196694 0.9993206660479 -11.01291523877 0.9993206660479 -11.01291523877 0.0369128334879 -101.4086085436
4.109000000000000 0.0369701715327 -100.6165304888 0.9993184641491 -11.01855338536 0.9993184641491 -11.01855338536 0.0369729607487 -101.4154295090
4.110000000000000 0.0370303944979 -100.6209487675 0.9993162541504 -11.02419829149 0.9993162541504 -11.02419829149 0.0370332053552 -101.4222570342
4.111000000000001 0.0370907351914 -100.6253745217 0.9993140360190 -11.02984997512 0.9993140360190 -11.02984997512 0.0370935676192 -101.4290911366
4.112000000000000 0.0371511939262 -100.6298077678 0.9993118097221 -11.03550845426 0.9993118097221 -11.03550845426 0.0371540478539 -101.4359318336
4.113000000000000 0.0372117710165 -100.6342485219 0.9993095752267 -11.04117374698 0.9993095752267 -11.04117374698 0.0372146463735 -101.4427791425
4.114000000000000 0.0372724667775 -100.6386968005 0.9993073324997 -11.04684587142 0.9993073324997 -11.04684587142 0.0372753634932 -101.4496330809
4.115000000000000 0.0373332815254 -100.6431526202 0.9993050815078 -11.05252484580 0.9993050815078 -11.05252484580 0.0373361995295 -101.4564936664
4.116000000000001 0.0373942155778 -100.6476159974 0.9993028222174 -11.05821068838 0.9993028222174 -11.05821068838 0.0373971547999 -101.4633609166
4.117000000000000 0.0374552692533 -100.6520869487 0.9993005545950 -11.06390341749 0.9993005545950 -11.06390341749 0.0374582296231 -101.4702348493
4.118000000000000 0.0375164428717 -100.6565654908 0.9992982786066 -11.06960305154 0.9992982786066 -11.06960305154 0.0375194243188 -101.4771154822
4.119000000000001 0.0375777367537 -100.6610516405 0.9992959942185 -11.07530960900 0.9992959942185 -11.07530960900 0.0375807392081 -101.4840028331
4.120000000000000 0.0376391512214 -100.6655454146 0.9992937013963 -11.08102310839 0.9992937013963 -11.08102310839 0.0376421746129 -101.4908969201
4.121000000000000 0.0377006865979 -100.6700468300 0.9992914001059 -11.08674356832 0.9992914001059 -11.08674356832 0.0377037308566 -101.4977977610
4.122000000000000 0.0377623432076 -100.6745559037 0.9992890903127 -11.09247100745 0.9992890903127 -11.09247100745 0.0377654082635 -101.5047053739
4.123000000000000 0.0378241213760 -100.6790726526 0.9992867719822 -11.09820544451 0.9992867719822 -11.09820544451 0.0378272071591 -101.5116197771
4.124000000000001 0.0378860214296 -100.6835970939 0.9992844450794 -11.10394689830 0.9992844450794 -11.10394689830 0.0378891278702 -101.5185409886
4.125000000000000 0.0379480436963 -100.6881292448 0.9992821095695 -11.10969538769 0.9992821095695 -11.10969538769 0.0379511707246 -101.5254690268
4.126000000000000 0.0380101885051 -100.6926691225 0.9992797654173 -11.11545093161 0.9992797654173 -11.11545093161 0.0380133360514 -101.5324039099
4.127000000000001 0.0380724561860 -100.6972167443 0.9992774125875 -11.12121354907 0.9992774125875 -11.12121354907 0.0380756241808 -101.5393456565
4.128000000000000 0.0381348470705 -100.7017721277 0.9992750510445 -11.12698325913 0.9992750510445 -11.12698325913 0.0381380354442 -101.5462942849
4.129000000000000 0.0381973614910 -100.7063352900 0.9992726807527 -11.13276008094 0.9992726807527 -11.13276008094 0.0382005701741 -101.5532498138
4.130000000000000 0.0382599997814 -100.7109062489 0.9992703016763 -11.13854403370 0.9992703016763 -11.13854403370 0.0382632287045 -101.5602122618
4.131000000000000 0.0383227622765 -100.7154850219 0.9992679137793 -11.14433513669 0.9992679137793 -11.14433513669 0.0383260113702 -101.5671816475
4.132000000000001 0.0383856493124 -100.7200716268 0.9992655170253 -11.15013340926 0.9992655170253 -11.15013340926 0.0383889185076 -101.5741579898
4.133000000000000 0.0384486612265 -100.7246660812 0.9992631113782 -11.15593887082 0.9992631113782 -11.15593887082 0.0384519504539 -101.5811413075
4.134000000000000 0.0385117983574 -100.7292684031 0.9992606968012 -11.16175154087 0.9992606968012 -11.16175154087 0.0385151075479 -101.5881316196
4.135000000000001 0.0385750610448 -100.7338786103 0.9992582732577 -11.16757143895 0.9992582732577 -11.16757143895 0.0385783901293 -101.5951289449
4.136000000000000 0.0386384496297 -100.7384967209 0.9992558407108 -11.17339858470 0.9992558407108 -11.17339858470 0.0386417985392 -101.6021333026
4.137000000000000 0.0387019644543 -100.7431227528 0.9992533991234 -11.17923299783 0.9992533991234 -11.17923299783 0.0387053331200 -101.6091447119
4.138000000000000 0.0387656058622 -100.7477567243 0.9992509484581 -11.18507469809 0.9992509484581 -11.18507469809 0.0387689942152 -101.6161631919
4.139000000000000 0.0388293741981 -100.7523986534 0.9992484886775 -11.19092370533 0.9992484886775 -11.19092370533 0.0388327821696 -101.6231887619
4.140000000000001 0.0388932698079 -100.7570485587 0.9992460197440 -11.19678003947 0.9992460197440 -11.19678003947 0.0388966973292 -101.6302214413
4.141000000000000 0.0389572930389 -100.7617064582 0.9992435416197 -11.20264372050 0.9992435416197 -11.20264372050 0.0389607400414 -101.6372612496
4.142000000000000 0.0390214442395 -100.7663723707 0.9992410542666 -11.20851476847 0.9992410542666 -11.20851476847 0.0390249106546 -101.6443082063
4.143000000000001 0.0390857237595 -100.7710463144 0.9992385576465 -11.21439320353 0.9992385576465 -11.21439320353 0.0390892095187 -101.6513623309
4.144000000000000 0.0391501319499 -100.7757283082 0.9992360517209 -11.22027904587 0.9992360517209 -11.22027904587 0.0391536369848 -101.6584236431
4.145000000000000 0.0392146691631 -100.7804183705 0.9992335364513 -11.22617231577 0.9992335364513 -11.22617231577 0.0392181934053 -101.6654921628
4.146000000000000 0.0392793357526 -100.7851165202 0.9992310117989 -11.23207303360 0.9992310117989 -11.23207303360 0.0392828791338 -101.6725679096
4.147000000000000 0.0393441320732 -100.7898227761 0.9992284777247 -11.23798121979 0.9992284777247 -11.23798121979 0.0393476945252 -101.6796509035
4.148000000000001 0.0394090584812 -100.7945371571 0.9992259341894 -11.24389689483 0.9992259341894 -11.24389689483 0.0394126399359 -101.6867411646
4.149000000000000 0.0394741153341 -100.7992596823 0.9992233811539 -11.24982007930 0.9992233811539 -11.24982007930 0.0394777157234 -101.6938387128
4.150000000000000 0.0395393029906 -100.8039903706 0.9992208185784 -11.25575079387 0.9992208185784 -11.25575079387 0.0395429222465 -101.7009435682
4.151000000000001 0.0396046218108 -100.8087292412 0.9992182464232 -11.26168905925 0.9992182464232 -11.26168905925 0.0396082598653 -101.7080557512
4.152000000000000 0.0396700721561 -100.8134763134 0.9992156646484 -11.26763489627 0.9992156646484 -11.26763489627 0.0396737289414 -101.7151752820
4.153000000000000 0.0397356543892 -100.8182316064 0.9992130732138 -11.27358832580 0.9992130732138 -11.27358832580 0.0397393298376 -101.7223021810
4.154000000000000 0.0398013688744 -100.8229951397 0.9992104720789 -11.27954936880 0.9992104720789 -11.27954936880 0.0398050629180 -101.7294364686
4.155000000000000 0.0398672159768 -100.8277669328 0.9992078612033 -11.28551804631 0.9992078612033 -11.28551804631 0.0398709285480 -101.7365781653
4.156000000000001 0.0399331960634 -100.8325470051 0.9992052405462 -11.29149437944 0.9992052405462 -11.29149437944 0.0399369270946 -101.7437272918
4.157000000000000 0.0399993095021 -100.8373353763 0.9992026100666 -11.29747838939 0.9992026100666 -11.29747838939 0.0400030589259 -101.7508838688
4.158000000000000 0.0400655566626 -100.8421320661 0.9991999697232 -11.30347009744 0.9991999697232 -11.30347009744 0.0400693244114 -101.7580479171
4.159000000000001 0.0401319379155 -100.8469370944 0.9991973194748 -11.30946952492 0.9991973194748 -11.30946952492 0.0401357239220 -101.7652194575
4.160000000000000 0.0401984536330 -100.8517504810 0.9991946592798 -11.31547669327 0.9991946592798 -11.31547669327 0.0402022578300 -101.7723985109
4.161000000000000 0.0402651041888 -100.8565722459 0.9991919890962 -11.32149162400 0.9991919890962 -11.32149162400 0.0402689265089 -101.7795850984
4.162000000000000 0.0403318899578 -100.8614024091 0.9991893088821 -11.32751433869 0.9991893088821 -11.32751433869 0.0403357303339 -101.7867792411
4.163000000000000 0.0403988113163 -100.8662409907 0.9991866185953 -11.33354485902 0.9991866185953 -11.33354485902 0.0404026696813 -101.7939809602
4.164000000000001 0.0404658686420 -100.8710880111 0.9991839181933 -11.33958320673 0.9991839181933 -11.33958320673 0.0404697449289 -101.8011902769
4.165000000000000 0.0405330623141 -100.8759434904 0.9991812076334 -11.34562940366 0.9991812076334 -11.34562940366 0.0405369564559 -101.8084072126
4.166000000000000 0.0406003927130 -100.8808074491 0.9991784868729 -11.35168347171 0.9991784868729 -11.35168347171 0.0406043046429 -101.8156317887
4.167000000000000 0.0406678602208 -100.8856799077 0.9991757558685 -11.35774543287 0.9991757558685 -11.35774543287 0.0406717898720 -101.8228640268
4.168000000000000 0.0407354652208 -100.8905608867 0.9991730145770 -11.36381530923 0.9991730145770 -11.36381530923 0.0407394125265 -101.8301039485
4.169000000000000 0.0408032080979 -100.8954504068 0.9991702629548 -11.36989312293 0.9991702629548 -11.36989312293 0.0408071729913 -101.8373515755
4.170000000000000 0.0408710892381 -100.9003484886 0.9991675009583 -11.37597889623 0.9991675009583 -11.37597889623 0.0408750716528 -101.8446069295
4.171000000000000 0.0409391090292 -100.9052551530 0.9991647285434 -11.38207265143 0.9991647285434 -11.38207265143 0.0409431088987 -101.8518700324
4.172000000000001 0.0410072678603 -100.9101704210 0.9991619456659 -11.38817441096 0.9991619456659 -11.38817441096 0.0410112851180 -101.8591409062
4.173000000000000 0.0410755661220 -100.9150943135 0.9991591522814 -11.39428419729 0.9991591522814 -11.39428419729 0.0410796007016 -101.8664195729
4.174000000000000 0.0411440042063 -100.9200268516 0.9991563483453 -11.40040203300 0.9991563483453 -11.40040203300 0.0411480560414 -101.8737060547
4.175000000000000 0.0412125825067 -100.9249680565 0.9991535338127 -11.40652794076 0.9991535338127 -11.40652794076 0.0412166515311 -101.8810003737
4.176000000000000 0.0412813014181 -100.9299179493 0.9991507086385 -11.41266194331 0.9991507086385 -11.41266194331 0.0412853875657 -101.8883025522
4.177000000000000 0.0413501613370 -100.9348765516 0.9991478727773 -11.41880406348 0.9991478727773 -11.41880406348 0.0413542645416 -101.8956126127
4.178000000000000 0.0414191626613 -100.9398438847 0.9991450261836 -11.42495432418 0.9991450261836 -11.42495432418 0.0414232828570 -101.9029305776
4.179000000000000 0.0414883057905 -100.9448199702 0.9991421688116 -11.43111274841 0.9991421688116 -11.43111274841 0.0414924429112 -101.9102564695
4.180000000000001 0.0415575911254 -100.9498048296 0.9991393006153 -11.43727935927 0.9991393006153 -11.43727935927 0.0415617451053 -101.9175903111
4.181000000000000 0.0416270190686 -100.9547984847 0.9991364215483 -11.44345417994 0.9991364215483 -11.44345417994 0.0416311898418 -101.9249321250
4.182000000000000 0.0416965900240 -100.9598009573 0.9991335315643 -11.44963723367 0.9991335315643 -11.44963723367 0.0417007775248 -101.9322819341
4.183000000000000 0.0417663043969 -100.9648122693 0.9991306306164 -11.45582854382 0.9991306306164 -11.45582854382 0.0417705085597 -101.9396397615
4.184000000000000 0.0418361625945 -100.9698324427 0.9991277186576 -11.46202813383 0.9991277186576 -11.46202813383 0.0418403833536 -101.9470056300
4.185000000000000 0.0419061650253 -100.9748614995 0.9991247956408 -11.46823602722 0.9991247956408 -11.46823602722 0.0419104023152 -101.9543795628
4.186000000000000 0.0419763120994 -100.9798994619 0.9991218615185 -11.47445224763 0.9991218615185 -11.47445224763 0.0419805658546 -101.9617615830
4.187000000000000 0.0420466042284 -100.9849463522 0.9991189162429 -11.48067681874 0.9991189162429 -11.48067681874 0.0420508743835 -101.9691517141
4.188000000000001 0.0421170418254 -100.9900021928 0.9991159597661 -11.48690976437 0.9991159597661 -11.48690976437 0.0421213283151 -101.9765499793
4.189000000000000 0.0421876253053 -100.9950670061 0.9991129920399 -11.49315110840 0.9991129920399 -11.49315110840 0.0421919280644 -101.9839564022
4.190000000000000 0.0422583550845 -101.0001408146 0.9991100130159 -11.49940087481 0.9991100130159 -11.49940087481 0.0422626740477 -101.9913710063
4.191000000000000 0.0423292315807 -101.0052236410 0.9991070226453 -11.50565908766 0.9991070226453 -11.50565908766 0.0423335666830 -101.9987938153
4.192000000000000 0.0424002552135 -101.0103155080 0.9991040208792 -11.51192577114 0.9991040208792 -11.51192577114 0.0424046063898 -102.0062248530
4.193000000000001 0.0424714264040 -101.0154164386 0.9991010076683 -11.51820094947 0.9991010076683 -11.51820094947 0.0424757935894 -102.0136641432
4.194000000000000 0.0425427455749 -101.0205264555 0.9990979829633 -11.52448464703 0.9990979829633 -11.52448464703 0.0425471287045 -102.0211117098
4.195000000000000 0.0426142131505 -101.0256455818 0.9990949467144 -11.53077688824 0.9990949467144 -11.53077688824 0.0426186121595 -102.0285675770
4.196000000000001 0.0426858295568 -101.0307738407 0.9990918988717 -11.53707769764 0.9990918988717 -11.53707769764 0.0426902443804 -102.0360317689
4.197000000000000 0.0427575952213 -101.0359112553 0.9990888393848 -11.54338709986 0.9990888393848 -11.54338709986 0.0427620257948 -102.0435043096
4.198000000000000 0.0428295105732 -101.0410578491 0.9990857682033 -11.54970511962 0.9990857682033 -11.54970511962 0.0428339568320 -102.0509852236
4.199000000000000 0.0429015760433 -101.0462136454 0.9990826852764 -11.55603178174 0.9990826852764 -11.55603178174 0.0429060379229 -102.0584745352
4.200000000000000 0.0429737920641 -101.0513786676 0.9990795905531 -11.56236711113 0.9990795905531 -11.56236711113 0.0429782695001 -102.0659722691
4.201000000000001 0.0430461590697 -101.0565529396 0.9990764839822 -11.56871113279 0.9990764839822 -11.56871113279 0.0430506519977 -102.0734784498