! Sonnet Data File
! From: emgraph Version : 16.52
! From Emgraph Data: 171120_xz_squiggleX_Res5G_OddBrgSg_unit2
! Data File Written: 11/20/2017 13:13:11
!< HDATE 11/20/2017 11:17:42
!< MDATE 11/20/2017 11:18:06
!< PARAMS
!< Squiggle_length = 16.0
!< Inter_L = 35.0
!< Holo = 82.0
!< Inter = 19.0
!< Width = 359.0
!< END PARAMS
# GHZ S MA R 50.00000
4.00000000 0.982793 152.48 0.184707 62.483 0.184707 62.483 0.982793 152.48
!< P1 F=4.0 Eeff=(7.89482441 -3.6407e-5) Z0=(50.4658937 1.16281e-4) R=0.0 C=0.0 
!< P2 F=4.0 Eeff=(7.89482441 -3.6407e-5) Z0=(50.4658937 1.16281e-4) R=0.0 C=0.0 
4.00100000 0.982784 152.48 0.184755 62.476 0.184755 62.476 0.982785 152.48
4.00200000 0.982775 152.47 0.184803 62.469 0.184803 62.469 0.982776 152.47
4.00300000 0.982766 152.46 0.184851 62.462 0.184851 62.462 0.982767 152.46
4.00400000 0.982757 152.45 0.184898 62.454 0.184898 62.454 0.982758 152.45
4.00500000 0.982748 152.45 0.184946 62.447 0.184946 62.447 0.982749 152.45
4.00600000 0.982739 152.44 0.184994 62.440 0.184994 62.440 0.982740 152.44
4.00700000 0.982730 152.43 0.185042 62.433 0.185042 62.433 0.982731 152.43
4.00800000 0.982721 152.43 0.185090 62.426 0.185090 62.426 0.982722 152.43
4.00900000 0.982712 152.42 0.185138 62.419 0.185138 62.419 0.982713 152.42
4.01000000 0.982703 152.41 0.185186 62.412 0.185186 62.412 0.982704 152.41
4.01100000 0.982694 152.40 0.185233 62.404 0.185233 62.404 0.982695 152.40
4.01200000 0.982685 152.40 0.185281 62.397 0.185281 62.397 0.982686 152.40
4.01300000 0.982676 152.39 0.185329 62.390 0.185329 62.390 0.982677 152.39
4.01400000 0.982667 152.38 0.185377 62.383 0.185377 62.383 0.982668 152.38
4.01500000 0.982658 152.38 0.185425 62.376 0.185425 62.376 0.982659 152.38
4.01600000 0.982649 152.37 0.185473 62.369 0.185473 62.369 0.982650 152.37
4.01700000 0.982640 152.36 0.185521 62.362 0.185521 62.362 0.982641 152.36
4.01800000 0.982631 152.35 0.185569 62.354 0.185569 62.354 0.982632 152.36
4.01900000 0.982622 152.35 0.185617 62.347 0.185617 62.347 0.982623 152.35
4.02000000 0.982613 152.34 0.185665 62.340 0.185665 62.340 0.982614 152.34
4.02100000 0.982603 152.33 0.185713 62.333 0.185713 62.333 0.982604 152.33
4.02200000 0.982594 152.33 0.185761 62.326 0.185761 62.326 0.982595 152.33
4.02300000 0.982585 152.32 0.185809 62.319 0.185809 62.319 0.982586 152.32
4.02400000 0.982576 152.31 0.185857 62.312 0.185857 62.312 0.982577 152.31
4.02500000 0.982567 152.30 0.185905 62.304 0.185905 62.304 0.982568 152.31
4.02600000 0.982558 152.30 0.185953 62.297 0.185953 62.297 0.982559 152.30
4.02700000 0.982549 152.29 0.186001 62.290 0.186001 62.290 0.982550 152.29
4.02800000 0.982540 152.28 0.186049 62.283 0.186049 62.283 0.982541 152.28
4.02900000 0.982531 152.28 0.186097 62.276 0.186097 62.276 0.982532 152.28
4.03000000 0.982521 152.27 0.186145 62.269 0.186145 62.269 0.982523 152.27
4.03100000 0.982512 152.26 0.186193 62.261 0.186193 62.261 0.982514 152.26
4.03200000 0.982503 152.25 0.186241 62.254 0.186241 62.254 0.982505 152.26
4.03300000 0.982494 152.25 0.186289 62.247 0.186289 62.247 0.982496 152.25
4.03400000 0.982485 152.24 0.186337 62.240 0.186337 62.240 0.982487 152.24
4.03500000 0.982476 152.23 0.186385 62.233 0.186385 62.233 0.982477 152.23
4.03600000 0.982467 152.22 0.186433 62.226 0.186433 62.226 0.982468 152.23
4.03700000 0.982457 152.22 0.186481 62.218 0.186481 62.218 0.982459 152.22
4.03800000 0.982448 152.21 0.186529 62.211 0.186529 62.211 0.982450 152.21
4.03900000 0.982439 152.20 0.186577 62.204 0.186577 62.204 0.982441 152.21
4.04000000 0.982430 152.20 0.186625 62.197 0.186625 62.197 0.982432 152.20
4.04100000 0.982421 152.19 0.186674 62.190 0.186674 62.190 0.982423 152.19
4.04200000 0.982412 152.18 0.186722 62.183 0.186722 62.183 0.982414 152.18
4.04300000 0.982402 152.17 0.186770 62.175 0.186770 62.175 0.982405 152.18
4.04400000 0.982393 152.17 0.186818 62.168 0.186818 62.168 0.982395 152.17
4.04500000 0.982384 152.16 0.186866 62.161 0.186866 62.161 0.982386 152.16
4.04600000 0.982375 152.15 0.186914 62.154 0.186914 62.154 0.982377 152.16
4.04700000 0.982366 152.15 0.186962 62.147 0.186962 62.147 0.982368 152.15
4.04800000 0.982357 152.14 0.187011 62.140 0.187011 62.140 0.982359 152.14
4.04900000 0.982347 152.13 0.187059 62.132 0.187059 62.132 0.982350 152.13
4.05000000 0.982338 152.12 0.187107 62.125 0.187107 62.125 0.982340 152.13
4.05100000 0.982329 152.12 0.187155 62.118 0.187155 62.118 0.982331 152.12
4.05200000 0.982320 152.11 0.187203 62.111 0.187203 62.111 0.982322 152.11
4.05300000 0.982311 152.10 0.187252 62.104 0.187252 62.104 0.982313 152.11
4.05400000 0.982301 152.10 0.187300 62.097 0.187300 62.097 0.982304 152.10
4.05500000 0.982292 152.09 0.187348 62.089 0.187348 62.089 0.982295 152.09
4.05600000 0.982283 152.08 0.187396 62.082 0.187396 62.082 0.982285 152.08
4.05700000 0.982274 152.07 0.187445 62.075 0.187445 62.075 0.982276 152.08
4.05800000 0.982264 152.07 0.187493 62.068 0.187493 62.068 0.982267 152.07
4.05900000 0.982255 152.06 0.187541 62.061 0.187541 62.061 0.982258 152.06
4.06000000 0.982246 152.05 0.187590 62.054 0.187590 62.054 0.982249 152.06
4.06100000 0.982237 152.04 0.187638 62.046 0.187638 62.046 0.982239 152.05
4.06200000 0.982227 152.04 0.187686 62.039 0.187686 62.039 0.982230 152.04
4.06300000 0.982218 152.03 0.187734 62.032 0.187734 62.032 0.982221 152.03
4.06400000 0.982209 152.02 0.187783 62.025 0.187783 62.025 0.982212 152.03
4.06500000 0.982200 152.02 0.187831 62.018 0.187831 62.018 0.982203 152.02
4.06600000 0.982190 152.01 0.187879 62.010 0.187879 62.010 0.982193 152.01
4.06700000 0.982181 152.00 0.187928 62.003 0.187928 62.003 0.982184 152.01
4.06800000 0.982172 151.99 0.187976 61.996 0.187976 61.996 0.982175 152.00
4.06900000 0.982162 151.99 0.188024 61.989 0.188024 61.989 0.982166 151.99
4.07000000 0.982153 151.98 0.188073 61.982 0.188073 61.982 0.982156 151.98
4.07100000 0.982144 151.97 0.188121 61.974 0.188121 61.974 0.982147 151.98
4.07200000 0.982135 151.97 0.188170 61.967 0.188170 61.967 0.982138 151.97
4.07300000 0.982125 151.96 0.188218 61.960 0.188218 61.960 0.982129 151.96
4.07400000 0.982116 151.95 0.188266 61.953 0.188266 61.953 0.982119 151.96
4.07500000 0.982107 151.94 0.188315 61.946 0.188315 61.946 0.982110 151.95
4.07600000 0.982097 151.94 0.188363 61.938 0.188363 61.938 0.982101 151.94
4.07700000 0.982088 151.93 0.188412 61.931 0.188412 61.931 0.982091 151.93
4.07800000 0.982079 151.92 0.188460 61.924 0.188460 61.924 0.982082 151.93
4.07900000 0.982069 151.91 0.188509 61.917 0.188509 61.917 0.982073 151.92
4.08000000 0.982060 151.91 0.188557 61.910 0.188557 61.910 0.982064 151.91
4.08100000 0.982051 151.90 0.188606 61.903 0.188606 61.903 0.982054 151.91
4.08200000 0.982041 151.89 0.188654 61.895 0.188654 61.895 0.982045 151.90
4.08300000 0.982032 151.89 0.188703 61.888 0.188703 61.888 0.982036 151.89
4.08400000 0.982023 151.88 0.188751 61.881 0.188751 61.881 0.982026 151.88
4.08500000 0.982013 151.87 0.188800 61.874 0.188800 61.874 0.982017 151.88
4.08600000 0.982004 151.86 0.188848 61.866 0.188848 61.866 0.982008 151.87
4.08700000 0.981995 151.86 0.188897 61.859 0.188897 61.859 0.981998 151.86
4.08800000 0.981985 151.85 0.188945 61.852 0.188945 61.852 0.981989 151.86
4.08900000 0.981976 151.84 0.188994 61.845 0.188994 61.845 0.981980 151.85
4.09000000 0.981967 151.83 0.189042 61.838 0.189042 61.838 0.981970 151.84
4.09100000 0.981957 151.83 0.189091 61.830 0.189091 61.830 0.981961 151.83
4.09200000 0.981948 151.82 0.189140 61.823 0.189140 61.823 0.981952 151.83
4.09300000 0.981938 151.81 0.189188 61.816 0.189188 61.816 0.981942 151.82
4.09400000 0.981929 151.81 0.189237 61.809 0.189237 61.809 0.981933 151.81
4.09500000 0.981920 151.80 0.189285 61.802 0.189285 61.802 0.981924 151.81
4.09600000 0.981910 151.79 0.189334 61.794 0.189334 61.794 0.981914 151.80
4.09700000 0.981901 151.78 0.189383 61.787 0.189383 61.787 0.981905 151.79
4.09800000 0.981891 151.78 0.189431 61.780 0.189431 61.780 0.981896 151.78
4.09900000 0.981882 151.77 0.189480 61.773 0.189480 61.773 0.981886 151.78
4.10000000 0.981873 151.76 0.189529 61.766 0.189529 61.766 0.981877 151.77
4.10100000 0.981863 151.75 0.189577 61.758 0.189577 61.758 0.981867 151.76
4.10200000 0.981854 151.75 0.189626 61.751 0.189626 61.751 0.981858 151.76
4.10300000 0.981844 151.74 0.189675 61.744 0.189675 61.744 0.981849 151.75
4.10400000 0.981835 151.73 0.189723 61.737 0.189723 61.737 0.981839 151.74
4.10500000 0.981825 151.73 0.189772 61.729 0.189772 61.729 0.981830 151.73
4.10600000 0.981816 151.72 0.189821 61.722 0.189821 61.722 0.981820 151.73
4.10700000 0.981807 151.71 0.189870 61.715 0.189870 61.715 0.981811 151.72
4.10800000 0.981797 151.70 0.189918 61.708 0.189918 61.708 0.981802 151.71
4.10900000 0.981788 151.70 0.189967 61.701 0.189967 61.701 0.981792 151.71
4.11000000 0.981778 151.69 0.190016 61.693 0.190016 61.693 0.981783 151.70
4.11100000 0.981769 151.68 0.190065 61.686 0.190065 61.686 0.981773 151.69
4.11200000 0.981759 151.68 0.190113 61.679 0.190113 61.679 0.981764 151.68
4.11300000 0.981750 151.67 0.190162 61.672 0.190162 61.672 0.981754 151.68
4.11400000 0.981740 151.66 0.190211 61.664 0.190211 61.664 0.981745 151.67
4.11500000 0.981731 151.65 0.190260 61.657 0.190260 61.657 0.981735 151.66
4.11600000 0.981721 151.65 0.190309 61.650 0.190309 61.650 0.981726 151.66
4.11700000 0.981712 151.64 0.190358 61.643 0.190358 61.643 0.981717 151.65
4.11800000 0.981702 151.63 0.190406 61.636 0.190406 61.636 0.981707 151.64
4.11900000 0.981693 151.62 0.190455 61.628 0.190455 61.628 0.981698 151.63
4.12000000 0.981683 151.62 0.190504 61.621 0.190504 61.621 0.981688 151.63
4.12100000 0.981674 151.61 0.190553 61.614 0.190553 61.614 0.981679 151.62
4.12200000 0.981664 151.60 0.190602 61.607 0.190602 61.607 0.981669 151.61
4.12300000 0.981655 151.59 0.190651 61.599 0.190651 61.599 0.981660 151.61
4.12400000 0.981645 151.59 0.190700 61.592 0.190700 61.592 0.981650 151.60
4.12500000 0.981636 151.58 0.190749 61.585 0.190749 61.585 0.981641 151.59
4.12600000 0.981626 151.57 0.190798 61.578 0.190798 61.578 0.981631 151.58
4.12700000 0.981617 151.57 0.190847 61.570 0.190847 61.570 0.981622 151.58
4.12800000 0.981607 151.56 0.190896 61.563 0.190896 61.563 0.981612 151.57
4.12900000 0.981598 151.55 0.190945 61.556 0.190945 61.556 0.981603 151.56
4.13000000 0.981588 151.54 0.190994 61.549 0.190994 61.549 0.981593 151.56
4.13100000 0.981578 151.54 0.191043 61.541 0.191043 61.541 0.981584 151.55
4.13200000 0.981569 151.53 0.191092 61.534 0.191092 61.534 0.981574 151.54
4.13300000 0.981559 151.52 0.191141 61.527 0.191141 61.527 0.981564 151.53
4.13400000 0.981550 151.51 0.191190 61.520 0.191190 61.520 0.981555 151.53
4.13500000 0.981540 151.51 0.191239 61.512 0.191239 61.512 0.981545 151.52
4.13600000 0.981531 151.50 0.191288 61.505 0.191288 61.505 0.981536 151.51
4.13700000 0.981521 151.49 0.191337 61.498 0.191337 61.498 0.981526 151.50
4.13800000 0.981511 151.49 0.191386 61.491 0.191386 61.491 0.981517 151.50
4.13900000 0.981502 151.48 0.191435 61.483 0.191435 61.483 0.981507 151.49
4.14000000 0.981492 151.47 0.191484 61.476 0.191484 61.476 0.981498 151.48
4.14100000 0.981483 151.46 0.191533 61.469 0.191533 61.469 0.981488 151.48
4.14200000 0.981473 151.46 0.191582 61.462 0.191582 61.462 0.981478 151.47
4.14300000 0.981463 151.45 0.191631 61.454 0.191631 61.454 0.981469 151.46
4.14400000 0.981454 151.44 0.191681 61.447 0.191681 61.447 0.981459 151.45
4.14500000 0.981444 151.43 0.191730 61.440 0.191730 61.440 0.981450 151.45
4.14600000 0.981434 151.43 0.191779 61.433 0.191779 61.433 0.981440 151.44
4.14700000 0.981425 151.42 0.191828 61.425 0.191828 61.425 0.981430 151.43
4.14800000 0.981415 151.41 0.191877 61.418 0.191877 61.418 0.981421 151.43
4.14900000 0.981406 151.41 0.191927 61.411 0.191927 61.411 0.981411 151.42
4.15000000 0.981396 151.40 0.191976 61.404 0.191976 61.404 0.981402 151.41
4.15100000 0.981386 151.39 0.192025 61.396 0.192025 61.396 0.981392 151.40
4.15200000 0.981377 151.38 0.192074 61.389 0.192074 61.389 0.981382 151.40
4.15300000 0.981367 151.38 0.192123 61.382 0.192123 61.382 0.981373 151.39
4.15400000 0.981357 151.37 0.192173 61.375 0.192173 61.375 0.981363 151.38
4.15500000 0.981348 151.36 0.192222 61.367 0.192222 61.367 0.981353 151.38
4.15600000 0.981338 151.35 0.192271 61.360 0.192271 61.360 0.981344 151.37
4.15700000 0.981328 151.35 0.192321 61.353 0.192321 61.353 0.981334 151.36
4.15800000 0.981319 151.34 0.192370 61.345 0.192370 61.345 0.981324 151.35
4.15900000 0.981309 151.33 0.192419 61.338 0.192419 61.338 0.981315 151.35
4.16000000 0.981299 151.32 0.192469 61.331 0.192469 61.331 0.981305 151.34
4.16100000 0.981289 151.32 0.192518 61.324 0.192518 61.324 0.981295 151.33
4.16200000 0.981280 151.31 0.192567 61.316 0.192567 61.316 0.981286 151.32
4.16300000 0.981270 151.30 0.192617 61.309 0.192617 61.309 0.981276 151.32
4.16400000 0.981260 151.30 0.192666 61.302 0.192666 61.302 0.981266 151.31
4.16500000 0.981251 151.29 0.192716 61.294 0.192716 61.294 0.981257 151.30
4.16600000 0.981241 151.28 0.192765 61.287 0.192765 61.287 0.981247 151.30
4.16700000 0.981231 151.27 0.192814 61.280 0.192814 61.280 0.981237 151.29
4.16800000 0.981221 151.27 0.192864 61.273 0.192864 61.273 0.981227 151.28
4.16900000 0.981212 151.26 0.192913 61.265 0.192913 61.265 0.981218 151.27
4.17000000 0.981202 151.25 0.192963 61.258 0.192963 61.258 0.981208 151.27
4.17100000 0.981192 151.24 0.193012 61.251 0.193012 61.251 0.981198 151.26
4.17200000 0.981182 151.24 0.193062 61.243 0.193062 61.243 0.981189 151.25
4.17300000 0.981173 151.23 0.193111 61.236 0.193111 61.236 0.981179 151.25
4.17400000 0.981163 151.22 0.193161 61.229 0.193161 61.229 0.981169 151.24
4.17500000 0.981153 151.21 0.193210 61.222 0.193210 61.222 0.981159 151.23
4.17600000 0.981143 151.21 0.193260 61.214 0.193260 61.214 0.981150 151.22
4.17700000 0.981134 151.20 0.193309 61.207 0.193309 61.207 0.981140 151.22
4.17800000 0.981124 151.19 0.193359 61.200 0.193359 61.200 0.981130 151.21
4.17900000 0.981114 151.19 0.193409 61.192 0.193409 61.192 0.981120 151.20
4.18000000 0.981104 151.18 0.193458 61.185 0.193458 61.185 0.981110 151.19
4.18100000 0.981094 151.17 0.193508 61.178 0.193508 61.178 0.981101 151.19
4.18200000 0.981084 151.16 0.193557 61.171 0.193557 61.171 0.981091 151.18
4.18300000 0.981075 151.16 0.193607 61.163 0.193607 61.163 0.981081 151.17
4.18400000 0.981065 151.15 0.193657 61.156 0.193657 61.156 0.981071 151.17
4.18500000 0.981055 151.14 0.193706 61.149 0.193706 61.149 0.981061 151.16
4.18600000 0.981045 151.13 0.193756 61.141 0.193756 61.141 0.981052 151.15
4.18700000 0.981035 151.13 0.193806 61.134 0.193806 61.134 0.981042 151.14
4.18800000 0.981026 151.12 0.193855 61.127 0.193855 61.127 0.981032 151.14
4.18900000 0.981016 151.11 0.193905 61.119 0.193905 61.119 0.981022 151.13
4.19000000 0.981006 151.10 0.193955 61.112 0.193955 61.112 0.981012 151.12
4.19100000 0.980996 151.10 0.194005 61.105 0.194005 61.105 0.981003 151.12
4.19200000 0.980986 151.09 0.194054 61.097 0.194054 61.097 0.980993 151.11
4.19300000 0.980976 151.08 0.194104 61.090 0.194104 61.090 0.980983 151.10
4.19400000 0.980966 151.07 0.194154 61.083 0.194154 61.083 0.980973 151.09
4.19500000 0.980956 151.07 0.194204 61.076 0.194204 61.076 0.980963 151.09
4.19600000 0.980947 151.06 0.194254 61.068 0.194254 61.068 0.980953 151.08
4.19700000 0.980937 151.05 0.194303 61.061 0.194303 61.061 0.980943 151.07
4.19800000 0.980927 151.05 0.194353 61.054 0.194353 61.054 0.980934 151.06
4.19900000 0.980917 151.04 0.194403 61.046 0.194403 61.046 0.980924 151.06
4.20000000 0.980907 151.03 0.194453 61.039 0.194453 61.039 0.980914 151.05
4.20100000 0.980897 151.02 0.194503 61.032 0.194503 61.032 0.980904 151.04
4.20200000 0.980887 151.02 0.194553 61.024 0.194553 61.024 0.980894 151.04
4.20300000 0.980877 151.01 0.194603 61.017 0.194603 61.017 0.980884 151.03
4.20400000 0.980867 151.00 0.194653 61.010 0.194653 61.010 0.980874 151.02
4.20500000 0.980857 150.99 0.194703 61.002 0.194703 61.002 0.980864 151.01
4.20600000 0.980847 150.99 0.194753 60.995 0.194753 60.995 0.980854 151.01
4.20700000 0.980837 150.98 0.194803 60.988 0.194803 60.988 0.980844 151.00
4.20800000 0.980828 150.97 0.194852 60.980 0.194852 60.980 0.980834 150.99
4.20900000 0.980818 150.96 0.194902 60.973 0.194902 60.973 0.980824 150.98
4.21000000 0.980808 150.96 0.194953 60.966 0.194953 60.966 0.980815 150.98
4.21100000 0.980798 150.95 0.195003 60.958 0.195003 60.958 0.980805 150.97
4.21200000 0.980788 150.94 0.195053 60.951 0.195053 60.951 0.980795 150.96
4.21300000 0.980778 150.93 0.195103 60.944 0.195103 60.944 0.980785 150.96
4.21400000 0.980768 150.93 0.195153 60.936 0.195153 60.936 0.980775 150.95
4.21500000 0.980758 150.92 0.195203 60.929 0.195203 60.929 0.980765 150.94
4.21600000 0.980748 150.91 0.195253 60.922 0.195253 60.922 0.980755 150.93
4.21700000 0.980738 150.90 0.195303 60.914 0.195303 60.914 0.980745 150.93
4.21800000 0.980728 150.90 0.195353 60.907 0.195353 60.907 0.980735 150.92
4.21900000 0.980718 150.89 0.195403 60.900 0.195403 60.900 0.980725 150.91
4.22000000 0.980708 150.88 0.195454 60.892 0.195454 60.892 0.980715 150.90
4.22100000 0.980698 150.88 0.195504 60.885 0.195504 60.885 0.980705 150.90
4.22200000 0.980688 150.87 0.195554 60.878 0.195554 60.878 0.980695 150.89
4.22300000 0.980678 150.86 0.195604 60.870 0.195604 60.870 0.980685 150.88
4.22400000 0.980668 150.85 0.195654 60.863 0.195654 60.863 0.980675 150.88
4.22500000 0.980658 150.85 0.195705 60.855 0.195705 60.855 0.980665 150.87
4.22600000 0.980647 150.84 0.195755 60.848 0.195755 60.848 0.980655 150.86
4.22700000 0.980637 150.83 0.195805 60.841 0.195805 60.841 0.980645 150.85
4.22800000 0.980627 150.82 0.195855 60.833 0.195855 60.833 0.980635 150.85
4.22900000 0.980617 150.82 0.195906 60.826 0.195906 60.826 0.980625 150.84
4.23000000 0.980607 150.81 0.195956 60.819 0.195956 60.819 0.980614 150.83
4.23100000 0.980597 150.80 0.196006 60.811 0.196006 60.811 0.980604 150.82
4.23200000 0.980587 150.79 0.196057 60.804 0.196057 60.804 0.980594 150.82
4.23300000 0.980577 150.79 0.196107 60.797 0.196107 60.797 0.980584 150.81
4.23400000 0.980567 150.78 0.196157 60.789 0.196157 60.789 0.980574 150.80
4.23500000 0.980557 150.77 0.196208 60.782 0.196208 60.782 0.980564 150.80
4.23600000 0.980547 150.76 0.196258 60.775 0.196258 60.775 0.980554 150.79
4.23700000 0.980537 150.76 0.196309 60.767 0.196309 60.767 0.980544 150.78
4.23800000 0.980526 150.75 0.196359 60.760 0.196359 60.760 0.980534 150.77
4.23900000 0.980516 150.74 0.196410 60.752 0.196410 60.752 0.980524 150.77
4.24000000 0.980506 150.73 0.196460 60.745 0.196460 60.745 0.980514 150.76
4.24100000 0.980496 150.73 0.196511 60.738 0.196511 60.738 0.980503 150.75
4.24200000 0.980486 150.72 0.196561 60.730 0.196561 60.730 0.980493 150.74
4.24300000 0.980476 150.71 0.196612 60.723 0.196612 60.723 0.980483 150.74
4.24400000 0.980466 150.70 0.196662 60.716 0.196662 60.716 0.980473 150.73
4.24500000 0.980455 150.70 0.196713 60.708 0.196713 60.708 0.980463 150.72
4.24600000 0.980445 150.69 0.196763 60.701 0.196763 60.701 0.980453 150.72
4.24700000 0.980435 150.68 0.196814 60.693 0.196814 60.693 0.980443 150.71
4.24800000 0.980425 150.67 0.196865 60.686 0.196865 60.686 0.980432 150.70
4.24900000 0.980415 150.67 0.196915 60.679 0.196915 60.679 0.980422 150.69
4.25000000 0.980404 150.66 0.196966 60.671 0.196966 60.671 0.980412 150.69
4.25100000 0.980394 150.65 0.197017 60.664 0.197017 60.664 0.980402 150.68
4.25200000 0.980384 150.64 0.197067 60.656 0.197067 60.656 0.980392 150.67
4.25300000 0.980374 150.64 0.197118 60.649 0.197118 60.649 0.980381 150.66
4.25400000 0.980364 150.63 0.197169 60.642 0.197169 60.642 0.980371 150.66
4.25500000 0.980353 150.62 0.197219 60.634 0.197219 60.634 0.980361 150.65
4.25600000 0.980343 150.61 0.197270 60.627 0.197270 60.627 0.980351 150.64
4.25700000 0.980333 150.61 0.197321 60.619 0.197321 60.619 0.980341 150.63
4.25800000 0.980323 150.60 0.197372 60.612 0.197372 60.612 0.980330 150.63
4.25900000 0.980312 150.59 0.197422 60.605 0.197422 60.605 0.980320 150.62
4.26000000 0.980302 150.58 0.197473 60.597 0.197473 60.597 0.980310 150.61
4.26100000 0.980292 150.58 0.197524 60.590 0.197524 60.590 0.980300 150.61
4.26200000 0.980282 150.57 0.197575 60.582 0.197575 60.582 0.980289 150.60
4.26300000 0.980271 150.56 0.197626 60.575 0.197626 60.575 0.980279 150.59
4.26400000 0.980261 150.55 0.197677 60.568 0.197677 60.568 0.980269 150.58
4.26500000 0.980251 150.55 0.197728 60.560 0.197728 60.560 0.980259 150.58
4.26600000 0.980240 150.54 0.197779 60.553 0.197779 60.553 0.980248 150.57
4.26700000 0.980230 150.53 0.197830 60.545 0.197830 60.545 0.980238 150.56
4.26800000 0.980220 150.52 0.197880 60.538 0.197880 60.538 0.980228 150.55
4.26900000 0.980210 150.52 0.197931 60.531 0.197931 60.531 0.980217 150.55
4.27000000 0.980199 150.51 0.197982 60.523 0.197982 60.523 0.980207 150.54
4.27100000 0.980189 150.50 0.198033 60.516 0.198033 60.516 0.980197 150.53
4.27200000 0.980179 150.49 0.198085 60.508 0.198085 60.508 0.980186 150.52
4.27300000 0.980168 150.49 0.198136 60.501 0.198136 60.501 0.980176 150.52
4.27400000 0.980158 150.48 0.198187 60.493 0.198187 60.493 0.980166 150.51
4.27500000 0.980148 150.47 0.198238 60.486 0.198238 60.486 0.980155 150.50
4.27600000 0.980137 150.46 0.198289 60.479 0.198289 60.479 0.980145 150.50
4.27700000 0.980127 150.46 0.198340 60.471 0.198340 60.471 0.980135 150.49
4.27800000 0.980116 150.45 0.198391 60.464 0.198391 60.464 0.980124 150.48
4.27900000 0.980106 150.44 0.198442 60.456 0.198442 60.456 0.980114 150.47
4.28000000 0.980096 150.43 0.198493 60.449 0.198493 60.449 0.980104 150.47
4.28100000 0.980085 150.43 0.198545 60.441 0.198545 60.441 0.980093 150.46
4.28200000 0.980075 150.42 0.198596 60.434 0.198596 60.434 0.980083 150.45
4.28300000 0.980065 150.41 0.198647 60.427 0.198647 60.427 0.980072 150.44
4.28400000 0.980054 150.40 0.198698 60.419 0.198698 60.419 0.980062 150.44
4.28500000 0.980044 150.40 0.198750 60.412 0.198750 60.412 0.980052 150.43
4.28600000 0.980033 150.39 0.198801 60.404 0.198801 60.404 0.980041 150.42
4.28700000 0.980023 150.38 0.198852 60.397 0.198852 60.397 0.980031 150.41
4.28800000 0.980012 150.37 0.198904 60.389 0.198904 60.389 0.980020 150.41
4.28900000 0.980002 150.37 0.198955 60.382 0.198955 60.382 0.980010 150.40
4.29000000 0.979992 150.36 0.199006 60.374 0.199006 60.374 0.979999 150.39
4.29100000 0.979981 150.35 0.199058 60.367 0.199058 60.367 0.979989 150.39
4.29200000 0.979971 150.34 0.199109 60.359 0.199109 60.359 0.979979 150.38
4.29300000 0.979960 150.34 0.199161 60.352 0.199161 60.352 0.979968 150.37
4.29400000 0.979950 150.33 0.199212 60.345 0.199212 60.345 0.979958 150.36
4.29500000 0.979939 150.32 0.199263 60.337 0.199263 60.337 0.979947 150.36
4.29600000 0.979929 150.31 0.199315 60.330 0.199315 60.330 0.979937 150.35
4.29700000 0.979918 150.31 0.199366 60.322 0.199366 60.322 0.979926 150.34
4.29800000 0.979908 150.30 0.199418 60.315 0.199418 60.315 0.979916 150.33
4.29900000 0.979897 150.29 0.199470 60.307 0.199470 60.307 0.979905 150.33
4.30000000 0.979887 150.28 0.199521 60.300 0.199521 60.300 0.979895 150.32
4.30100000 0.979876 150.28 0.199573 60.292 0.199573 60.292 0.979884 150.31
4.30200000 0.979866 150.27 0.199624 60.285 0.199624 60.285 0.979874 150.30
4.30300000 0.979855 150.26 0.199676 60.277 0.199676 60.277 0.979863 150.30
4.30400000 0.979844 150.25 0.199728 60.270 0.199728 60.270 0.979853 150.29
4.30500000 0.979834 150.25 0.199779 60.262 0.199779 60.262 0.979842 150.28
4.30600000 0.979823 150.24 0.199831 60.255 0.199831 60.255 0.979831 150.27
4.30700000 0.979813 150.23 0.199883 60.247 0.199883 60.247 0.979821 150.27
4.30800000 0.979802 150.22 0.199934 60.240 0.199934 60.240 0.979810 150.26
4.30900000 0.979792 150.22 0.199986 60.233 0.199986 60.233 0.979800 150.25
4.31000000 0.979781 150.21 0.200038 60.225 0.200038 60.225 0.979789 150.24
4.31100000 0.979770 150.20 0.200090 60.218 0.200090 60.218 0.979779 150.24
4.31200000 0.979760 150.19 0.200142 60.210 0.200142 60.210 0.979768 150.23
4.31300000 0.979749 150.19 0.200193 60.203 0.200193 60.203 0.979757 150.22
4.31400000 0.979739 150.18 0.200245 60.195 0.200245 60.195 0.979747 150.22
4.31500000 0.979728 150.17 0.200297 60.188 0.200297 60.188 0.979736 150.21
4.31600000 0.979717 150.16 0.200349 60.180 0.200349 60.180 0.979726 150.20
4.31700000 0.979707 150.16 0.200401 60.173 0.200401 60.173 0.979715 150.19
4.31800000 0.979696 150.15 0.200453 60.165 0.200453 60.165 0.979704 150.19
4.31900000 0.979685 150.14 0.200505 60.158 0.200505 60.158 0.979694 150.18
4.32000000 0.979675 150.13 0.200557 60.150 0.200557 60.150 0.979683 150.17
4.32100000 0.979664 150.12 0.200609 60.143 0.200609 60.143 0.979672 150.16
4.32200000 0.979653 150.12 0.200661 60.135 0.200661 60.135 0.979662 150.16
4.32300000 0.979643 150.11 0.200713 60.128 0.200713 60.128 0.979651 150.15
4.32400000 0.979632 150.10 0.200765 60.120 0.200765 60.120 0.979640 150.14
4.32500000 0.979621 150.09 0.200817 60.113 0.200817 60.113 0.979630 150.13
4.32600000 0.979611 150.09 0.200869 60.105 0.200869 60.105 0.979619 150.13
4.32700000 0.979600 150.08 0.200921 60.097 0.200921 60.097 0.979608 150.12
4.32800000 0.979589 150.07 0.200974 60.090 0.200974 60.090 0.979597 150.11
4.32900000 0.979578 150.06 0.201026 60.082 0.201026 60.082 0.979587 150.10
4.33000000 0.979568 150.06 0.201078 60.075 0.201078 60.075 0.979576 150.10
4.33100000 0.979557 150.05 0.201130 60.067 0.201130 60.067 0.979565 150.09
4.33200000 0.979546 150.04 0.201183 60.060 0.201183 60.060 0.979555 150.08
4.33300000 0.979535 150.03 0.201235 60.052 0.201235 60.052 0.979544 150.07
4.33400000 0.979525 150.03 0.201287 60.045 0.201287 60.045 0.979533 150.07
4.33500000 0.979514 150.02 0.201339 60.037 0.201339 60.037 0.979522 150.06
4.33600000 0.979503 150.01 0.201392 60.030 0.201392 60.030 0.979511 150.05
4.33700000 0.979492 150.00 0.201444 60.022 0.201444 60.022 0.979501 150.04
4.33800000 0.979482 150.00 0.201497 60.015 0.201497 60.015 0.979490 150.04
4.33900000 0.979471 149.99 0.201549 60.007 0.201549 60.007 0.979479 150.03
4.34000000 0.979460 149.98 0.201601 60.000 0.201601 60.000 0.979468 150.02
4.34100000 0.979449 149.97 0.201654 59.992 0.201654 59.992 0.979457 150.02
4.34200000 0.979438 149.96 0.201706 59.984 0.201706 59.984 0.979447 150.01
4.34300000 0.979427 149.96 0.201759 59.977 0.201759 59.977 0.979436 150.00
4.34400000 0.979417 149.95 0.201811 59.969 0.201811 59.969 0.979425 149.99
4.34500000 0.979406 149.94 0.201864 59.962 0.201864 59.962 0.979414 149.99
4.34600000 0.979395 149.93 0.201917 59.954 0.201917 59.954 0.979403 149.98
4.34700000 0.979384 149.93 0.201969 59.947 0.201969 59.947 0.979392 149.97
4.34800000 0.979373 149.92 0.202022 59.939 0.202022 59.939 0.979382 149.96
4.34900000 0.979362 149.91 0.202074 59.932 0.202074 59.932 0.979371 149.96
4.35000000 0.979351 149.90 0.202127 59.924 0.202127 59.924 0.979360 149.95
4.35100000 0.979341 149.90 0.202180 59.916 0.202180 59.916 0.979349 149.94
4.35200000 0.979330 149.89 0.202233 59.909 0.202233 59.909 0.979338 149.93
4.35300000 0.979319 149.88 0.202285 59.901 0.202285 59.901 0.979327 149.93
4.35400000 0.979308 149.87 0.202338 59.894 0.202338 59.894 0.979316 149.92
4.35500000 0.979297 149.87 0.202391 59.886 0.202391 59.886 0.979305 149.91
4.35600000 0.979286 149.86 0.202444 59.879 0.202444 59.879 0.979294 149.90
4.35700000 0.979275 149.85 0.202497 59.871 0.202497 59.871 0.979283 149.90
4.35800000 0.979264 149.84 0.202549 59.863 0.202549 59.863 0.979272 149.89
4.35900000 0.979253 149.83 0.202602 59.856 0.202602 59.856 0.979261 149.88
4.36000000 0.979242 149.83 0.202655 59.848 0.202655 59.848 0.979250 149.87
4.36100000 0.979231 149.82 0.202708 59.841 0.202708 59.841 0.979239 149.87
4.36200000 0.979220 149.81 0.202761 59.833 0.202761 59.833 0.979228 149.86
4.36300000 0.979209 149.80 0.202814 59.826 0.202814 59.826 0.979218 149.85
4.36400000 0.979198 149.80 0.202867 59.818 0.202867 59.818 0.979207 149.84
4.36500000 0.979187 149.79 0.202920 59.810 0.202920 59.810 0.979195 149.84
4.36600000 0.979176 149.78 0.202973 59.803 0.202973 59.803 0.979184 149.83
4.36700000 0.979165 149.77 0.203027 59.795 0.203027 59.795 0.979173 149.82
4.36800000 0.979154 149.77 0.203080 59.788 0.203080 59.788 0.979162 149.81
4.36900000 0.979143 149.76 0.203133 59.780 0.203133 59.780 0.979151 149.81
4.37000000 0.979132 149.75 0.203186 59.772 0.203186 59.772 0.979140 149.80
4.37100000 0.979121 149.74 0.203239 59.765 0.203239 59.765 0.979129 149.79
4.37200000 0.979110 149.73 0.203292 59.757 0.203292 59.757 0.979118 149.78
4.37300000 0.979099 149.73 0.203346 59.750 0.203346 59.750 0.979107 149.78
4.37400000 0.979088 149.72 0.203399 59.742 0.203399 59.742 0.979096 149.77
4.37500000 0.979077 149.71 0.203452 59.734 0.203452 59.734 0.979085 149.76
4.37600000 0.979065 149.70 0.203506 59.727 0.203506 59.727 0.979074 149.75
4.37700000 0.979054 149.70 0.203559 59.719 0.203559 59.719 0.979063 149.75
4.37800000 0.979043 149.69 0.203612 59.711 0.203612 59.711 0.979052 149.74
4.37900000 0.979032 149.68 0.203666 59.704 0.203666 59.704 0.979040 149.73
4.38000000 0.979021 149.67 0.203719 59.696 0.203719 59.696 0.979029 149.72
4.38100000 0.979010 149.66 0.203773 59.689 0.203773 59.689 0.979018 149.72
4.38200000 0.978999 149.66 0.203826 59.681 0.203826 59.681 0.979007 149.71
4.38300000 0.978987 149.65 0.203880 59.673 0.203880 59.673 0.978996 149.70
4.38400000 0.978976 149.64 0.203933 59.666 0.203933 59.666 0.978985 149.69
4.38500000 0.978965 149.63 0.203987 59.658 0.203987 59.658 0.978973 149.69
4.38600000 0.978954 149.63 0.204041 59.650 0.204041 59.650 0.978962 149.68
4.38700000 0.978943 149.62 0.204094 59.643 0.204094 59.643 0.978951 149.67
4.38800000 0.978931 149.61 0.204148 59.635 0.204148 59.635 0.978940 149.66
4.38900000 0.978920 149.60 0.204202 59.627 0.204202 59.627 0.978929 149.66
4.39000000 0.978909 149.59 0.204255 59.620 0.204255 59.620 0.978917 149.65
4.39100000 0.978898 149.59 0.204309 59.612 0.204309 59.612 0.978906 149.64
4.39200000 0.978887 149.58 0.204363 59.604 0.204363 59.604 0.978895 149.63