! Sonnet Data File
! From: emgraph Version : 16.52
! From Emgraph Data: 171106_xz_squiggleX_Res5G_12_OddBrg
! Data File Written: 11/08/2017 10:11:53
!< HDATE 11/06/2017 22:05:53
!< MDATE 11/06/2017 22:05:53
!< PARAMS
!< dCr = 12.0
!< Squiggle_length = 16.0
!< END PARAMS
# GHZ S MA R 50.00000
4.00000000 0.998500 171.06 0.054750 81.059 0.054750 81.059 0.998500 171.06
!< P1 F=4.0 Eeff=(7.27452697 -3.3549e-5) Z0=(190.292719 4.38661e-4) R=0.0 C=0.0 
!< P2 F=4.0 Eeff=(7.27452697 -3.3549e-5) Z0=(190.292719 4.38661e-4) R=0.0 C=0.0 
4.00100000 0.998499 171.06 0.054764 81.057 0.054764 81.057 0.998499 171.05
4.00200000 0.998499 171.06 0.054778 81.055 0.054778 81.055 0.998499 171.05
4.00300000 0.998498 171.05 0.054792 81.053 0.054792 81.053 0.998498 171.05
4.00400000 0.998497 171.05 0.054806 81.050 0.054806 81.050 0.998497 171.05
4.00500000 0.998496 171.05 0.054819 81.048 0.054819 81.048 0.998496 171.05
4.00600000 0.998496 171.05 0.054833 81.046 0.054833 81.046 0.998496 171.04
4.00700000 0.998495 171.05 0.054847 81.044 0.054847 81.044 0.998495 171.04
4.00800000 0.998494 171.04 0.054861 81.041 0.054861 81.041 0.998494 171.04
4.00900000 0.998493 171.04 0.054875 81.039 0.054875 81.039 0.998493 171.04
4.01000000 0.998492 171.04 0.054888 81.037 0.054888 81.037 0.998492 171.03
4.01100000 0.998492 171.04 0.054902 81.035 0.054902 81.035 0.998492 171.03
4.01200000 0.998491 171.03 0.054916 81.032 0.054916 81.032 0.998491 171.03
4.01300000 0.998490 171.03 0.054930 81.030 0.054930 81.030 0.998490 171.03
4.01400000 0.998489 171.03 0.054944 81.028 0.054944 81.028 0.998489 171.03
4.01500000 0.998489 171.03 0.054957 81.026 0.054957 81.026 0.998489 171.02
4.01600000 0.998488 171.03 0.054971 81.023 0.054971 81.023 0.998488 171.02
4.01700000 0.998487 171.02 0.054985 81.021 0.054985 81.021 0.998487 171.02
4.01800000 0.998486 171.02 0.054999 81.019 0.054999 81.019 0.998486 171.02
4.01900000 0.998486 171.02 0.055013 81.017 0.055013 81.017 0.998486 171.01
4.02000000 0.998485 171.02 0.055026 81.014 0.055026 81.014 0.998485 171.01
4.02100000 0.998484 171.01 0.055040 81.012 0.055040 81.012 0.998484 171.01
4.02200000 0.998483 171.01 0.055054 81.010 0.055054 81.010 0.998483 171.01
4.02300000 0.998483 171.01 0.055068 81.008 0.055068 81.008 0.998483 171.01
4.02400000 0.998482 171.01 0.055081 81.005 0.055081 81.005 0.998482 171.00
4.02500000 0.998481 171.01 0.055095 81.003 0.055095 81.003 0.998481 171.00
4.02600000 0.998480 171.00 0.055109 81.001 0.055109 81.001 0.998480 171.00
4.02700000 0.998480 171.00 0.055123 80.999 0.055123 80.999 0.998480 171.00
4.02800000 0.998479 171.00 0.055137 80.996 0.055137 80.996 0.998479 170.99
4.02900000 0.998478 171.00 0.055150 80.994 0.055150 80.994 0.998478 170.99
4.03000000 0.998477 170.99 0.055164 80.992 0.055164 80.992 0.998477 170.99
4.03100000 0.998476 170.99 0.055178 80.990 0.055178 80.990 0.998476 170.99
4.03200000 0.998476 170.99 0.055192 80.987 0.055192 80.987 0.998476 170.99
4.03300000 0.998475 170.99 0.055206 80.985 0.055206 80.985 0.998475 170.98
4.03400000 0.998474 170.99 0.055219 80.983 0.055219 80.983 0.998474 170.98
4.03500000 0.998473 170.98 0.055233 80.981 0.055233 80.981 0.998473 170.98
4.03600000 0.998473 170.98 0.055247 80.978 0.055247 80.978 0.998473 170.98
4.03700000 0.998472 170.98 0.055261 80.976 0.055261 80.976 0.998472 170.97
4.03800000 0.998471 170.98 0.055275 80.974 0.055275 80.974 0.998471 170.97
4.03900000 0.998470 170.97 0.055288 80.972 0.055288 80.972 0.998470 170.97
4.04000000 0.998470 170.97 0.055302 80.969 0.055302 80.969 0.998470 170.97
4.04100000 0.998469 170.97 0.055316 80.967 0.055316 80.967 0.998469 170.96
4.04200000 0.998468 170.97 0.055330 80.965 0.055330 80.965 0.998468 170.96
4.04300000 0.998467 170.97 0.055344 80.963 0.055344 80.963 0.998467 170.96
4.04400000 0.998467 170.96 0.055357 80.960 0.055357 80.960 0.998467 170.96
4.04500000 0.998466 170.96 0.055371 80.958 0.055371 80.958 0.998466 170.96
4.04600000 0.998465 170.96 0.055385 80.956 0.055385 80.956 0.998465 170.95
4.04700000 0.998464 170.96 0.055399 80.954 0.055399 80.954 0.998464 170.95
4.04800000 0.998463 170.95 0.055413 80.951 0.055413 80.951 0.998463 170.95
4.04900000 0.998463 170.95 0.055426 80.949 0.055426 80.949 0.998463 170.95
4.05000000 0.998462 170.95 0.055440 80.947 0.055440 80.947 0.998462 170.94
4.05100000 0.998461 170.95 0.055454 80.945 0.055454 80.945 0.998461 170.94
4.05200000 0.998460 170.95 0.055468 80.943 0.055468 80.943 0.998460 170.94
4.05300000 0.998460 170.94 0.055482 80.940 0.055482 80.940 0.998460 170.94
4.05400000 0.998459 170.94 0.055495 80.938 0.055495 80.938 0.998459 170.94
4.05500000 0.998458 170.94 0.055509 80.936 0.055509 80.936 0.998458 170.93
4.05600000 0.998457 170.94 0.055523 80.934 0.055523 80.934 0.998457 170.93
4.05700000 0.998457 170.93 0.055537 80.931 0.055537 80.931 0.998457 170.93
4.05800000 0.998456 170.93 0.055551 80.929 0.055551 80.929 0.998456 170.93
4.05900000 0.998455 170.93 0.055564 80.927 0.055564 80.927 0.998455 170.92
4.06000000 0.998454 170.93 0.055578 80.925 0.055578 80.925 0.998454 170.92
4.06100000 0.998454 170.92 0.055592 80.922 0.055592 80.922 0.998453 170.92
4.06200000 0.998453 170.92 0.055606 80.920 0.055606 80.920 0.998453 170.92
4.06300000 0.998452 170.92 0.055620 80.918 0.055620 80.918 0.998452 170.92
4.06400000 0.998451 170.92 0.055633 80.916 0.055633 80.916 0.998451 170.91
4.06500000 0.998450 170.92 0.055647 80.913 0.055647 80.913 0.998450 170.91
4.06600000 0.998450 170.91 0.055661 80.911 0.055661 80.911 0.998450 170.91
4.06700000 0.998449 170.91 0.055675 80.909 0.055675 80.909 0.998449 170.91
4.06800000 0.998448 170.91 0.055689 80.907 0.055689 80.907 0.998448 170.90
4.06900000 0.998447 170.91 0.055702 80.904 0.055702 80.904 0.998447 170.90
4.07000000 0.998447 170.90 0.055716 80.902 0.055716 80.902 0.998447 170.90
4.07100000 0.998446 170.90 0.055730 80.900 0.055730 80.900 0.998446 170.90
4.07200000 0.998445 170.90 0.055744 80.898 0.055744 80.898 0.998445 170.90
4.07300000 0.998444 170.90 0.055758 80.895 0.055758 80.895 0.998444 170.89
4.07400000 0.998443 170.90 0.055771 80.893 0.055771 80.893 0.998443 170.89
4.07500000 0.998443 170.89 0.055785 80.891 0.055785 80.891 0.998443 170.89
4.07600000 0.998442 170.89 0.055799 80.889 0.055799 80.889 0.998442 170.89
4.07700000 0.998441 170.89 0.055813 80.886 0.055813 80.886 0.998441 170.88
4.07800000 0.998440 170.89 0.055827 80.884 0.055827 80.884 0.998440 170.88
4.07900000 0.998440 170.88 0.055840 80.882 0.055840 80.882 0.998440 170.88
4.08000000 0.998439 170.88 0.055854 80.880 0.055854 80.880 0.998439 170.88
4.08100000 0.998438 170.88 0.055868 80.877 0.055868 80.877 0.998438 170.87
4.08200000 0.998437 170.88 0.055882 80.875 0.055882 80.875 0.998437 170.87
4.08300000 0.998437 170.88 0.055896 80.873 0.055896 80.873 0.998437 170.87
4.08400000 0.998436 170.87 0.055909 80.871 0.055909 80.871 0.998436 170.87
4.08500000 0.998435 170.87 0.055923 80.868 0.055923 80.868 0.998435 170.87
4.08600000 0.998434 170.87 0.055937 80.866 0.055937 80.866 0.998434 170.86
4.08700000 0.998433 170.87 0.055951 80.864 0.055951 80.864 0.998433 170.86
4.08800000 0.998433 170.86 0.055965 80.862 0.055965 80.862 0.998433 170.86
4.08900000 0.998432 170.86 0.055978 80.859 0.055978 80.859 0.998432 170.86
4.09000000 0.998431 170.86 0.055992 80.857 0.055992 80.857 0.998431 170.85
4.09100000 0.998430 170.86 0.056006 80.855 0.056006 80.855 0.998430 170.85
4.09200000 0.998430 170.86 0.056020 80.853 0.056020 80.853 0.998430 170.85
4.09300000 0.998429 170.85 0.056034 80.850 0.056034 80.850 0.998429 170.85
4.09400000 0.998428 170.85 0.056047 80.848 0.056047 80.848 0.998428 170.85
4.09500000 0.998427 170.85 0.056061 80.846 0.056061 80.846 0.998427 170.84
4.09600000 0.998426 170.85 0.056075 80.844 0.056075 80.844 0.998426 170.84
4.09700000 0.998426 170.84 0.056089 80.841 0.056089 80.841 0.998426 170.84
4.09800000 0.998425 170.84 0.056103 80.839 0.056103 80.839 0.998425 170.84
4.09900000 0.998424 170.84 0.056116 80.837 0.056116 80.837 0.998424 170.83
4.10000000 0.998423 170.84 0.056130 80.835 0.056130 80.835 0.998423 170.83
4.10100000 0.998423 170.84 0.056144 80.832 0.056144 80.832 0.998423 170.83
4.10200000 0.998422 170.83 0.056158 80.830 0.056158 80.830 0.998422 170.83
4.10300000 0.998421 170.83 0.056172 80.828 0.056172 80.828 0.998421 170.83
4.10400000 0.998420 170.83 0.056186 80.826 0.056186 80.826 0.998420 170.82
4.10500000 0.998419 170.83 0.056199 80.823 0.056199 80.823 0.998419 170.82
4.10600000 0.998419 170.82 0.056213 80.821 0.056213 80.821 0.998419 170.82
4.10700000 0.998418 170.82 0.056227 80.819 0.056227 80.819 0.998418 170.82
4.10800000 0.998417 170.82 0.056241 80.817 0.056241 80.817 0.998417 170.81
4.10900000 0.998416 170.82 0.056255 80.814 0.056255 80.814 0.998416 170.81
4.11000000 0.998416 170.81 0.056268 80.812 0.056268 80.812 0.998416 170.81
4.11100000 0.998415 170.81 0.056282 80.810 0.056282 80.810 0.998415 170.81
4.11200000 0.998414 170.81 0.056296 80.808 0.056296 80.808 0.998414 170.81
4.11300000 0.998413 170.81 0.056310 80.806 0.056310 80.806 0.998413 170.80
4.11400000 0.998412 170.81 0.056324 80.803 0.056324 80.803 0.998412 170.80
4.11500000 0.998412 170.80 0.056337 80.801 0.056337 80.801 0.998412 170.80
4.11600000 0.998411 170.80 0.056351 80.799 0.056351 80.799 0.998411 170.80
4.11700000 0.998410 170.80 0.056365 80.797 0.056365 80.797 0.998410 170.79
4.11800000 0.998409 170.80 0.056379 80.794 0.056379 80.794 0.998409 170.79
4.11900000 0.998409 170.79 0.056393 80.792 0.056393 80.792 0.998409 170.79
4.12000000 0.998408 170.79 0.056406 80.790 0.056406 80.790 0.998408 170.79
4.12100000 0.998407 170.79 0.056420 80.788 0.056420 80.788 0.998407 170.78
4.12200000 0.998406 170.79 0.056434 80.785 0.056434 80.785 0.998406 170.78
4.12300000 0.998405 170.79 0.056448 80.783 0.056448 80.783 0.998405 170.78
4.12400000 0.998405 170.78 0.056462 80.781 0.056462 80.781 0.998405 170.78
4.12500000 0.998404 170.78 0.056476 80.779 0.056476 80.779 0.998404 170.78
4.12600000 0.998403 170.78 0.056489 80.776 0.056489 80.776 0.998403 170.77
4.12700000 0.998402 170.78 0.056503 80.774 0.056503 80.774 0.998402 170.77
4.12800000 0.998402 170.77 0.056517 80.772 0.056517 80.772 0.998402 170.77
4.12900000 0.998401 170.77 0.056531 80.770 0.056531 80.770 0.998401 170.77
4.13000000 0.998400 170.77 0.056545 80.767 0.056545 80.767 0.998400 170.76
4.13100000 0.998399 170.77 0.056558 80.765 0.056558 80.765 0.998399 170.76
4.13200000 0.998398 170.77 0.056572 80.763 0.056572 80.763 0.998398 170.76
4.13300000 0.998398 170.76 0.056586 80.761 0.056586 80.761 0.998398 170.76
4.13400000 0.998397 170.76 0.056600 80.758 0.056600 80.758 0.998397 170.76
4.13500000 0.998396 170.76 0.056614 80.756 0.056614 80.756 0.998396 170.75
4.13600000 0.998395 170.76 0.056627 80.754 0.056627 80.754 0.998395 170.75
4.13700000 0.998394 170.75 0.056641 80.752 0.056641 80.752 0.998394 170.75
4.13800000 0.998394 170.75 0.056655 80.749 0.056655 80.749 0.998394 170.75
4.13900000 0.998393 170.75 0.056669 80.747 0.056669 80.747 0.998393 170.74
4.14000000 0.998392 170.75 0.056683 80.745 0.056683 80.745 0.998392 170.74
4.14100000 0.998391 170.75 0.056697 80.743 0.056697 80.743 0.998391 170.74
4.14200000 0.998391 170.74 0.056710 80.740 0.056710 80.740 0.998391 170.74
4.14300000 0.998390 170.74 0.056724 80.738 0.056724 80.738 0.998390 170.74
4.14400000 0.998389 170.74 0.056738 80.736 0.056738 80.736 0.998389 170.73
4.14500000 0.998388 170.74 0.056752 80.734 0.056752 80.734 0.998388 170.73
4.14600000 0.998387 170.73 0.056766 80.731 0.056766 80.731 0.998387 170.73
4.14700000 0.998387 170.73 0.056779 80.729 0.056779 80.729 0.998387 170.73
4.14800000 0.998386 170.73 0.056793 80.727 0.056793 80.727 0.998386 170.72
4.14900000 0.998385 170.73 0.056807 80.725 0.056807 80.725 0.998385 170.72
4.15000000 0.998384 170.73 0.056821 80.722 0.056821 80.722 0.998384 170.72
4.15100000 0.998383 170.72 0.056835 80.720 0.056835 80.720 0.998383 170.72
4.15200000 0.998383 170.72 0.056849 80.718 0.056849 80.718 0.998383 170.72
4.15300000 0.998382 170.72 0.056862 80.716 0.056862 80.716 0.998382 170.71
4.15400000 0.998381 170.72 0.056876 80.713 0.056876 80.713 0.998381 170.71
4.15500000 0.998380 170.71 0.056890 80.711 0.056890 80.711 0.998380 170.71
4.15600000 0.998380 170.71 0.056904 80.709 0.056904 80.709 0.998380 170.71
4.15700000 0.998379 170.71 0.056918 80.707 0.056918 80.707 0.998379 170.70
4.15800000 0.998378 170.71 0.056931 80.704 0.056931 80.704 0.998378 170.70
4.15900000 0.998377 170.71 0.056945 80.702 0.056945 80.702 0.998377 170.70
4.16000000 0.998376 170.70 0.056959 80.700 0.056959 80.700 0.998376 170.70
4.16100000 0.998376 170.70 0.056973 80.698 0.056973 80.698 0.998376 170.69
4.16200000 0.998375 170.70 0.056987 80.695 0.056987 80.695 0.998375 170.69
4.16300000 0.998374 170.70 0.057001 80.693 0.057001 80.693 0.998374 170.69
4.16400000 0.998373 170.69 0.057014 80.691 0.057014 80.691 0.998373 170.69
4.16500000 0.998372 170.69 0.057028 80.689 0.057028 80.689 0.998372 170.69
4.16600000 0.998372 170.69 0.057042 80.686 0.057042 80.686 0.998372 170.68
4.16700000 0.998371 170.69 0.057056 80.684 0.057056 80.684 0.998371 170.68
4.16800000 0.998370 170.68 0.057070 80.682 0.057070 80.682 0.998370 170.68
4.16900000 0.998369 170.68 0.057083 80.680 0.057083 80.680 0.998369 170.68
4.17000000 0.998368 170.68 0.057097 80.677 0.057097 80.677 0.998368 170.67
4.17100000 0.998368 170.68 0.057111 80.675 0.057111 80.675 0.998368 170.67
4.17200000 0.998367 170.68 0.057125 80.673 0.057125 80.673 0.998367 170.67
4.17300000 0.998366 170.67 0.057139 80.671 0.057139 80.671 0.998366 170.67
4.17400000 0.998365 170.67 0.057153 80.668 0.057153 80.668 0.998365 170.67
4.17500000 0.998365 170.67 0.057166 80.666 0.057166 80.666 0.998365 170.66
4.17600000 0.998364 170.67 0.057180 80.664 0.057180 80.664 0.998364 170.66
4.17700000 0.998363 170.66 0.057194 80.662 0.057194 80.662 0.998363 170.66
4.17800000 0.998362 170.66 0.057208 80.659 0.057208 80.659 0.998362 170.66
4.17900000 0.998361 170.66 0.057222 80.657 0.057222 80.657 0.998361 170.65
4.18000000 0.998361 170.66 0.057236 80.655 0.057236 80.655 0.998361 170.65
4.18100000 0.998360 170.66 0.057249 80.653 0.057249 80.653 0.998360 170.65
4.18200000 0.998359 170.65 0.057263 80.650 0.057263 80.650 0.998359 170.65
4.18300000 0.998358 170.65 0.057277 80.648 0.057277 80.648 0.998358 170.65
4.18400000 0.998357 170.65 0.057291 80.646 0.057291 80.646 0.998357 170.64
4.18500000 0.998357 170.65 0.057305 80.644 0.057305 80.644 0.998357 170.64
4.18600000 0.998356 170.64 0.057318 80.641 0.057318 80.641 0.998356 170.64
4.18700000 0.998355 170.64 0.057332 80.639 0.057332 80.639 0.998355 170.64
4.18800000 0.998354 170.64 0.057346 80.637 0.057346 80.637 0.998354 170.63
4.18900000 0.998353 170.64 0.057360 80.635 0.057360 80.635 0.998353 170.63
4.19000000 0.998353 170.64 0.057374 80.632 0.057374 80.632 0.998353 170.63
4.19100000 0.998352 170.63 0.057388 80.630 0.057388 80.630 0.998352 170.63
4.19200000 0.998351 170.63 0.057401 80.628 0.057401 80.628 0.998351 170.63
4.19300000 0.998350 170.63 0.057415 80.626 0.057415 80.626 0.998350 170.62
4.19400000 0.998349 170.63 0.057429 80.624 0.057429 80.624 0.998349 170.62
4.19500000 0.998349 170.62 0.057443 80.621 0.057443 80.621 0.998349 170.62
4.19600000 0.998348 170.62 0.057457 80.619 0.057457 80.619 0.998348 170.62
4.19700000 0.998347 170.62 0.057471 80.617 0.057471 80.617 0.998347 170.61
4.19800000 0.998346 170.62 0.057484 80.615 0.057484 80.615 0.998346 170.61
4.19900000 0.998345 170.62 0.057498 80.612 0.057498 80.612 0.998345 170.61
4.20000000 0.998345 170.61 0.057512 80.610 0.057512 80.610 0.998345 170.61
4.20100000 0.998344 170.61 0.057526 80.608 0.057526 80.608 0.998344 170.60
4.20200000 0.998343 170.61 0.057540 80.606 0.057540 80.606 0.998343 170.60
4.20300000 0.998342 170.61 0.057554 80.603 0.057554 80.603 0.998342 170.60
4.20400000 0.998341 170.60 0.057567 80.601 0.057567 80.601 0.998341 170.60
4.20500000 0.998341 170.60 0.057581 80.599 0.057581 80.599 0.998341 170.60
4.20600000 0.998340 170.60 0.057595 80.597 0.057595 80.597 0.998340 170.59
4.20700000 0.998339 170.60 0.057609 80.594 0.057609 80.594 0.998339 170.59
4.20800000 0.998338 170.60 0.057623 80.592 0.057623 80.592 0.998338 170.59
4.20900000 0.998337 170.59 0.057637 80.590 0.057637 80.590 0.998337 170.59
4.21000000 0.998337 170.59 0.057650 80.588 0.057650 80.588 0.998337 170.58
4.21100000 0.998336 170.59 0.057664 80.585 0.057664 80.585 0.998336 170.58
4.21200000 0.998335 170.59 0.057678 80.583 0.057678 80.583 0.998335 170.58
4.21300000 0.998334 170.58 0.057692 80.581 0.057692 80.581 0.998334 170.58
4.21400000 0.998333 170.58 0.057706 80.579 0.057706 80.579 0.998333 170.58
4.21500000 0.998333 170.58 0.057720 80.576 0.057720 80.576 0.998333 170.57
4.21600000 0.998332 170.58 0.057733 80.574 0.057733 80.574 0.998332 170.57
4.21700000 0.998331 170.57 0.057747 80.572 0.057747 80.572 0.998331 170.57
4.21800000 0.998330 170.57 0.057761 80.570 0.057761 80.570 0.998330 170.57
4.21900000 0.998329 170.57 0.057775 80.567 0.057775 80.567 0.998329 170.56
4.22000000 0.998329 170.57 0.057789 80.565 0.057789 80.565 0.998329 170.56
4.22100000 0.998328 170.57 0.057803 80.563 0.057803 80.563 0.998328 170.56
4.22200000 0.998327 170.56 0.057816 80.561 0.057816 80.561 0.998327 170.56
4.22300000 0.998326 170.56 0.057830 80.558 0.057830 80.558 0.998326 170.56
4.22400000 0.998325 170.56 0.057844 80.556 0.057844 80.556 0.998325 170.55
4.22500000 0.998325 170.56 0.057858 80.554 0.057858 80.554 0.998325 170.55
4.22600000 0.998324 170.55 0.057872 80.552 0.057872 80.552 0.998324 170.55
4.22700000 0.998323 170.55 0.057886 80.549 0.057886 80.549 0.998323 170.55
4.22800000 0.998322 170.55 0.057899 80.547 0.057899 80.547 0.998322 170.54
4.22900000 0.998321 170.55 0.057913 80.545 0.057913 80.545 0.998321 170.54
4.23000000 0.998321 170.55 0.057927 80.543 0.057927 80.543 0.998321 170.54
4.23100000 0.998320 170.54 0.057941 80.540 0.057941 80.540 0.998320 170.54
4.23200000 0.998319 170.54 0.057955 80.538 0.057955 80.538 0.998319 170.54
4.23300000 0.998318 170.54 0.057969 80.536 0.057969 80.536 0.998318 170.53
4.23400000 0.998317 170.54 0.057982 80.534 0.057982 80.534 0.998317 170.53
4.23500000 0.998317 170.53 0.057996 80.531 0.057996 80.531 0.998317 170.53
4.23600000 0.998316 170.53 0.058010 80.529 0.058010 80.529 0.998316 170.53
4.23700000 0.998315 170.53 0.058024 80.527 0.058024 80.527 0.998315 170.52
4.23800000 0.998314 170.53 0.058038 80.525 0.058038 80.525 0.998314 170.52
4.23900000 0.998313 170.53 0.058052 80.522 0.058052 80.522 0.998313 170.52
4.24000000 0.998313 170.52 0.058065 80.520 0.058065 80.520 0.998313 170.52
4.24100000 0.998312 170.52 0.058079 80.518 0.058079 80.518 0.998312 170.51
4.24200000 0.998311 170.52 0.058093 80.516 0.058093 80.516 0.998311 170.51
4.24300000 0.998310 170.52 0.058107 80.513 0.058107 80.513 0.998310 170.51
4.24400000 0.998309 170.51 0.058121 80.511 0.058121 80.511 0.998309 170.51
4.24500000 0.998309 170.51 0.058135 80.509 0.058135 80.509 0.998309 170.51
4.24600000 0.998308 170.51 0.058149 80.507 0.058149 80.507 0.998308 170.50
4.24700000 0.998307 170.51 0.058162 80.504 0.058162 80.504 0.998307 170.50
4.24800000 0.998306 170.51 0.058176 80.502 0.058176 80.502 0.998306 170.50
4.24900000 0.998305 170.50 0.058190 80.500 0.058190 80.500 0.998305 170.50
4.25000000 0.998305 170.50 0.058204 80.498 0.058204 80.498 0.998305 170.49
4.25100000 0.998304 170.50 0.058218 80.495 0.058218 80.495 0.998304 170.49
4.25200000 0.998303 170.50 0.058232 80.493 0.058232 80.493 0.998303 170.49
4.25300000 0.998302 170.49 0.058245 80.491 0.058245 80.491 0.998302 170.49
4.25400000 0.998301 170.49 0.058259 80.489 0.058259 80.489 0.998301 170.49
4.25500000 0.998301 170.49 0.058273 80.486 0.058273 80.486 0.998301 170.48
4.25600000 0.998300 170.49 0.058287 80.484 0.058287 80.484 0.998300 170.48
4.25700000 0.998299 170.49 0.058301 80.482 0.058301 80.482 0.998299 170.48
4.25800000 0.998298 170.48 0.058315 80.480 0.058315 80.480 0.998298 170.48
4.25900000 0.998297 170.48 0.058328 80.477 0.058328 80.477 0.998297 170.47
4.26000000 0.998296 170.48 0.058342 80.475 0.058342 80.475 0.998296 170.47
4.26100000 0.998296 170.48 0.058356 80.473 0.058356 80.473 0.998296 170.47
4.26200000 0.998295 170.47 0.058370 80.471 0.058370 80.471 0.998295 170.47
4.26300000 0.998294 170.47 0.058384 80.468 0.058384 80.468 0.998294 170.47
4.26400000 0.998293 170.47 0.058398 80.466 0.058398 80.466 0.998293 170.46
4.26500000 0.998292 170.47 0.058412 80.464 0.058412 80.464 0.998292 170.46
4.26600000 0.998292 170.46 0.058425 80.462 0.058425 80.462 0.998292 170.46
4.26700000 0.998291 170.46 0.058439 80.459 0.058439 80.459 0.998291 170.46
4.26800000 0.998290 170.46 0.058453 80.457 0.058453 80.457 0.998290 170.45
4.26900000 0.998289 170.46 0.058467 80.455 0.058467 80.455 0.998289 170.45
4.27000000 0.998288 170.46 0.058481 80.453 0.058481 80.453 0.998288 170.45
4.27100000 0.998288 170.45 0.058495 80.450 0.058495 80.450 0.998288 170.45
4.27200000 0.998287 170.45 0.058509 80.448 0.058509 80.448 0.998287 170.44
4.27300000 0.998286 170.45 0.058522 80.446 0.058522 80.446 0.998286 170.44
4.27400000 0.998285 170.45 0.058536 80.444 0.058536 80.444 0.998285 170.44
4.27500000 0.998284 170.44 0.058550 80.441 0.058550 80.441 0.998284 170.44
4.27600000 0.998284 170.44 0.058564 80.439 0.058564 80.439 0.998283 170.44
4.27700000 0.998283 170.44 0.058578 80.437 0.058578 80.437 0.998283 170.43
4.27800000 0.998282 170.44 0.058592 80.435 0.058592 80.435 0.998282 170.43
4.27900000 0.998281 170.44 0.058605 80.432 0.058605 80.432 0.998281 170.43
4.28000000 0.998280 170.43 0.058619 80.430 0.058619 80.430 0.998280 170.43
4.28100000 0.998279 170.43 0.058633 80.428 0.058633 80.428 0.998279 170.42
4.28200000 0.998279 170.43 0.058647 80.426 0.058647 80.426 0.998279 170.42
4.28300000 0.998278 170.43 0.058661 80.423 0.058661 80.423 0.998278 170.42
4.28400000 0.998277 170.42 0.058675 80.421 0.058675 80.421 0.998277 170.42
4.28500000 0.998276 170.42 0.058689 80.419 0.058689 80.419 0.998276 170.42
4.28600000 0.998275 170.42 0.058702 80.417 0.058702 80.417 0.998275 170.41
4.28700000 0.998275 170.42 0.058716 80.414 0.058716 80.414 0.998275 170.41
4.28800000 0.998274 170.42 0.058730 80.412 0.058730 80.412 0.998274 170.41
4.28900000 0.998273 170.41 0.058744 80.410 0.058744 80.410 0.998273 170.41
4.29000000 0.998272 170.41 0.058758 80.408 0.058758 80.408 0.998272 170.40
4.29100000 0.998271 170.41 0.058772 80.405 0.058772 80.405 0.998271 170.40
4.29200000 0.998270 170.41 0.058786 80.403 0.058786 80.403 0.998270 170.40
4.29300000 0.998270 170.40 0.058799 80.401 0.058799 80.401 0.998270 170.40
4.29400000 0.998269 170.40 0.058813 80.399 0.058813 80.399 0.998269 170.40
4.29500000 0.998268 170.40 0.058827 80.396 0.058827 80.396 0.998268 170.39
4.29600000 0.998267 170.40 0.058841 80.394 0.058841 80.394 0.998267 170.39
4.29700000 0.998266 170.40 0.058855 80.392 0.058855 80.392 0.998266 170.39
4.29800000 0.998266 170.39 0.058869 80.390 0.058869 80.390 0.998266 170.39
4.29900000 0.998265 170.39 0.058883 80.387 0.058883 80.387 0.998265 170.38
4.30000000 0.998264 170.39 0.058896 80.385 0.058896 80.385 0.998264 170.38
4.30100000 0.998263 170.39 0.058910 80.383 0.058910 80.383 0.998263 170.38
4.30200000 0.998262 170.38 0.058924 80.381 0.058924 80.381 0.998262 170.38
4.30300000 0.998261 170.38 0.058938 80.378 0.058938 80.378 0.998261 170.38
4.30400000 0.998261 170.38 0.058952 80.376 0.058952 80.376 0.998261 170.37
4.30500000 0.998260 170.38 0.058966 80.374 0.058966 80.374 0.998260 170.37
4.30600000 0.998259 170.38 0.058980 80.372 0.058980 80.372 0.998259 170.37
4.30700000 0.998258 170.37 0.058994 80.369 0.058994 80.369 0.998258 170.37
4.30800000 0.998257 170.37 0.059007 80.367 0.059007 80.367 0.998257 170.36
4.30900000 0.998257 170.37 0.059021 80.365 0.059021 80.365 0.998257 170.36
4.31000000 0.998256 170.37 0.059035 80.363 0.059035 80.363 0.998256 170.36
4.31100000 0.998255 170.36 0.059049 80.360 0.059049 80.360 0.998255 170.36
4.31200000 0.998254 170.36 0.059063 80.358 0.059063 80.358 0.998254 170.35
4.31300000 0.998253 170.36 0.059077 80.356 0.059077 80.356 0.998253 170.35
4.31400000 0.998252 170.36 0.059091 80.354 0.059091 80.354 0.998252 170.35
4.31500000 0.998252 170.35 0.059104 80.351 0.059104 80.351 0.998252 170.35
4.31600000 0.998251 170.35 0.059118 80.349 0.059118 80.349 0.998251 170.35
4.31700000 0.998250 170.35 0.059132 80.347 0.059132 80.347 0.998250 170.34
4.31800000 0.998249 170.35 0.059146 80.345 0.059146 80.345 0.998249 170.34
4.31900000 0.998248 170.35 0.059160 80.342 0.059160 80.342 0.998248 170.34
4.32000000 0.998248 170.34 0.059174 80.340 0.059174 80.340 0.998248 170.34
4.32100000 0.998247 170.34 0.059188 80.338 0.059188 80.338 0.998247 170.33
4.32200000 0.998246 170.34 0.059202 80.336 0.059202 80.336 0.998246 170.33
4.32300000 0.998245 170.34 0.059215 80.333 0.059215 80.333 0.998245 170.33
4.32400000 0.998244 170.33 0.059229 80.331 0.059229 80.331 0.998244 170.33
4.32500000 0.998243 170.33 0.059243 80.329 0.059243 80.329 0.998243 170.33
4.32600000 0.998243 170.33 0.059257 80.327 0.059257 80.327 0.998243 170.32
4.32700000 0.998242 170.33 0.059271 80.324 0.059271 80.324 0.998242 170.32
4.32800000 0.998241 170.33 0.059285 80.322 0.059285 80.322 0.998241 170.32
4.32900000 0.998240 170.32 0.059299 80.320 0.059299 80.320 0.998240 170.32
4.33000000 0.998239 170.32 0.059312 80.318 0.059312 80.318 0.998239 170.31
4.33100000 0.998238 170.32 0.059326 80.315 0.059326 80.315 0.998238 170.31
4.33200000 0.998238 170.32 0.059340 80.313 0.059340 80.313 0.998238 170.31
4.33300000 0.998237 170.31 0.059354 80.311 0.059354 80.311 0.998237 170.31
4.33400000 0.998236 170.31 0.059368 80.309 0.059368 80.309 0.998236 170.31
4.33500000 0.998235 170.31 0.059382 80.306 0.059382 80.306 0.998235 170.30
4.33600000 0.998234 170.31 0.059396 80.304 0.059396 80.304 0.998234 170.30
4.33700000 0.998234 170.31 0.059410 80.302 0.059410 80.302 0.998234 170.30
4.33800000 0.998233 170.30 0.059423 80.300 0.059423 80.300 0.998233 170.30
4.33900000 0.998232 170.30 0.059437 80.297 0.059437 80.297 0.998232 170.29
4.34000000 0.998231 170.30 0.059451 80.295 0.059451 80.295 0.998231 170.29
4.34100000 0.998230 170.30 0.059465 80.293 0.059465 80.293 0.998230 170.29
4.34200000 0.998229 170.29 0.059479 80.291 0.059479 80.291 0.998229 170.29
4.34300000 0.998229 170.29 0.059493 80.288 0.059493 80.288 0.998229 170.28
4.34400000 0.998228 170.29 0.059507 80.286 0.059507 80.286 0.998228 170.28
4.34500000 0.998227 170.29 0.059521 80.284 0.059521 80.284 0.998227 170.28
4.34600000 0.998226 170.29 0.059534 80.282 0.059534 80.282 0.998226 170.28
4.34700000 0.998225 170.28 0.059548 80.279 0.059548 80.279 0.998225 170.28
4.34800000 0.998224 170.28 0.059562 80.277 0.059562 80.277 0.998224 170.27
4.34900000 0.998224 170.28 0.059576 80.275 0.059576 80.275 0.998224 170.27
4.35000000 0.998223 170.28 0.059590 80.273 0.059590 80.273 0.998223 170.27
4.35100000 0.998222 170.27 0.059604 80.270 0.059604 80.270 0.998222 170.27
4.35200000 0.998221 170.27 0.059618 80.268 0.059618 80.268 0.998221 170.26
4.35300000 0.998220 170.27 0.059632 80.266 0.059632 80.266 0.998220 170.26
4.35400000 0.998219 170.27 0.059646 80.264 0.059646 80.264 0.998219 170.26
4.35500000 0.998219 170.27 0.059659 80.261 0.059659 80.261 0.998219 170.26
4.35600000 0.998218 170.26 0.059673 80.259 0.059673 80.259 0.998218 170.26
4.35700000 0.998217 170.26 0.059687 80.257 0.059687 80.257 0.998217 170.25
4.35800000 0.998216 170.26 0.059701 80.255 0.059701 80.255 0.998216 170.25
4.35900000 0.998215 170.26 0.059715 80.252 0.059715 80.252 0.998215 170.25
4.36000000 0.998214 170.25 0.059729 80.250 0.059729 80.250 0.998214 170.25
4.36100000 0.998214 170.25 0.059743 80.248 0.059743 80.248 0.998214 170.24
4.36200000 0.998213 170.25 0.059757 80.246 0.059757 80.246 0.998213 170.24
4.36300000 0.998212 170.25 0.059770 80.243 0.059770 80.243 0.998212 170.24
4.36400000 0.998211 170.24 0.059784 80.241 0.059784 80.241 0.998211 170.24
4.36500000 0.998210 170.24 0.059798 80.239 0.059798 80.239 0.998210 170.24
4.36600000 0.998210 170.24 0.059812 80.237 0.059812 80.237 0.998209 170.23
4.36700000 0.998209 170.24 0.059826 80.234 0.059826 80.234 0.998209 170.23
4.36800000 0.998208 170.24 0.059840 80.232 0.059840 80.232 0.998208 170.23
4.36900000 0.998207 170.23 0.059854 80.230 0.059854 80.230 0.998207 170.23
4.37000000 0.998206 170.23 0.059868 80.228 0.059868 80.228 0.998206 170.22
4.37100000 0.998205 170.23 0.059882 80.225 0.059882 80.225 0.998205 170.22
4.37200000 0.998205 170.23 0.059895 80.223 0.059895 80.223 0.998204 170.22
4.37300000 0.998204 170.22 0.059909 80.221 0.059909 80.221 0.998204 170.22
4.37400000 0.998203 170.22 0.059923 80.219 0.059923 80.219 0.998203 170.21
4.37500000 0.998202 170.22 0.059937 80.216 0.059937 80.216 0.998202 170.21
4.37600000 0.998201 170.22 0.059951 80.214 0.059951 80.214 0.998201 170.21
4.37700000 0.998200 170.22 0.059965 80.212 0.059965 80.212 0.998200 170.21
4.37800000 0.998200 170.21 0.059979 80.210 0.059979 80.210 0.998199 170.21
4.37900000 0.998199 170.21 0.059993 80.207 0.059993 80.207 0.998199 170.20
4.38000000 0.998198 170.21 0.060007 80.205 0.060007 80.205 0.998198 170.20
4.38100000 0.998197 170.21 0.060021 80.203 0.060021 80.203 0.998197 170.20
4.38200000 0.998196 170.20 0.060034 80.201 0.060034 80.201 0.998196 170.20
4.38300000 0.998195 170.20 0.060048 80.198 0.060048 80.198 0.998195 170.19
4.38400000 0.998194 170.20 0.060062 80.196 0.060062 80.196 0.998194 170.19
4.38500000 0.998194 170.20 0.060076 80.194 0.060076 80.194 0.998194 170.19
4.38600000 0.998193 170.20 0.060090 80.192 0.060090 80.192 0.998193 170.19
4.38700000 0.998192 170.19 0.060104 80.189 0.060104 80.189 0.998192 170.19
4.38800000 0.998191 170.19 0.060118 80.187 0.060118 80.187 0.998191 170.18
4.38900000 0.998190 170.19 0.060132 80.185 0.060132 80.185 0.998190 170.18
4.39000000 0.998189 170.19 0.060146 80.183 0.060146 80.183 0.998189 170.18
4.39100000 0.998189 170.18 0.060159 80.180 0.060159 80.180 0.998189 170.18
4.39200000 0.998188 170.18 0.060173 80.178 0.060173 80.178 0.998188 170.17