! Sonnet Data File
! From: emgraph Version : 16.52
! From Emgraph Data: 171106_xz_squiggleX_Res5G_EvenDbnoBrg
! Data File Written: 11/08/2017 15:13:18
!< HDATE 11/08/2017 14:31:52
!< MDATE 11/08/2017 14:31:52
!< PARAMS
!< Squiggle_length = 16.0
!< Inter_L = 35.0
!< Holo = 82.0
!< Inter = 19.0
!< END PARAMS
# GHZ S MA R 50.00000
4.00000000 0.067847 -148.1 0.997691 -61.46 0.997691 -61.46 0.067848 -154.8
!< P1 F=4.0 Eeff=(6.46205531 -2.9804e-5) Z0=(51.0228591 1.17668e-4) R=0.01152096 C=0.01592983 
!< P2 F=4.0 Eeff=(6.46205531 -2.9804e-5) Z0=(51.0228591 1.17668e-4) R=0.01152096 C=0.01592983 
4.00100000 0.068078 -148.1 0.997675 -61.48 0.997675 -61.48 0.068079 -154.8
4.00200000 0.068309 -148.2 0.997660 -61.51 0.997660 -61.51 0.068310 -154.9
4.00300000 0.068540 -148.2 0.997644 -61.54 0.997644 -61.54 0.068542 -154.9
4.00400000 0.068772 -148.2 0.997628 -61.57 0.997628 -61.57 0.068774 -154.9
4.00500000 0.069004 -148.3 0.997612 -61.60 0.997612 -61.60 0.069006 -154.9
4.00600000 0.069237 -148.3 0.997596 -61.63 0.997596 -61.63 0.069239 -155.0
4.00700000 0.069470 -148.4 0.997580 -61.66 0.997580 -61.66 0.069472 -155.0
4.00800000 0.069703 -148.4 0.997564 -61.69 0.997564 -61.69 0.069706 -155.0
4.00900000 0.069937 -148.4 0.997548 -61.72 0.997548 -61.72 0.069940 -155.0
4.01000000 0.070171 -148.5 0.997531 -61.75 0.997531 -61.75 0.070174 -155.0
4.01100000 0.070405 -148.5 0.997515 -61.78 0.997515 -61.78 0.070408 -155.1
4.01200000 0.070640 -148.5 0.997498 -61.81 0.997498 -61.81 0.070644 -155.1
4.01300000 0.070875 -148.6 0.997482 -61.84 0.997482 -61.84 0.070879 -155.1
4.01400000 0.071110 -148.6 0.997465 -61.87 0.997465 -61.87 0.071115 -155.1
4.01500000 0.071346 -148.6 0.997448 -61.90 0.997448 -61.90 0.071351 -155.2
4.01600000 0.071583 -148.7 0.997432 -61.93 0.997432 -61.93 0.071587 -155.2
4.01700000 0.071819 -148.7 0.997415 -61.96 0.997415 -61.96 0.071824 -155.2
4.01800000 0.072056 -148.7 0.997398 -61.99 0.997398 -61.99 0.072061 -155.2
4.01900000 0.072294 -148.8 0.997381 -62.02 0.997381 -62.02 0.072299 -155.3
4.02000000 0.072531 -148.8 0.997364 -62.05 0.997364 -62.05 0.072537 -155.3
4.02100000 0.072769 -148.8 0.997346 -62.08 0.997346 -62.08 0.072775 -155.3
4.02200000 0.073008 -148.9 0.997329 -62.11 0.997329 -62.11 0.073014 -155.3
4.02300000 0.073247 -148.9 0.997312 -62.14 0.997312 -62.14 0.073253 -155.4
4.02400000 0.073486 -149.0 0.997294 -62.17 0.997294 -62.17 0.073493 -155.4
4.02500000 0.073726 -149.0 0.997276 -62.20 0.997276 -62.20 0.073733 -155.4
4.02600000 0.073966 -149.0 0.997259 -62.23 0.997259 -62.23 0.073973 -155.4
4.02700000 0.074206 -149.1 0.997241 -62.26 0.997241 -62.26 0.074214 -155.5
4.02800000 0.074447 -149.1 0.997223 -62.29 0.997223 -62.29 0.074455 -155.5
4.02900000 0.074688 -149.1 0.997205 -62.32 0.997205 -62.32 0.074696 -155.5
4.03000000 0.074929 -149.2 0.997187 -62.35 0.997187 -62.35 0.074938 -155.5
4.03100000 0.075171 -149.2 0.997169 -62.38 0.997169 -62.38 0.075180 -155.6
4.03200000 0.075414 -149.2 0.997151 -62.41 0.997151 -62.41 0.075422 -155.6
4.03300000 0.075656 -149.3 0.997133 -62.44 0.997133 -62.44 0.075665 -155.6
4.03400000 0.075899 -149.3 0.997114 -62.47 0.997114 -62.47 0.075909 -155.6
4.03500000 0.076143 -149.3 0.997096 -62.50 0.997096 -62.50 0.076152 -155.7
4.03600000 0.076387 -149.4 0.997077 -62.53 0.997077 -62.53 0.076396 -155.7
4.03700000 0.076631 -149.4 0.997059 -62.56 0.997059 -62.56 0.076641 -155.7
4.03800000 0.076875 -149.5 0.997040 -62.59 0.997040 -62.59 0.076886 -155.7
4.03900000 0.077120 -149.5 0.997021 -62.62 0.997021 -62.62 0.077131 -155.8
4.04000000 0.077366 -149.5 0.997002 -62.65 0.997002 -62.65 0.077377 -155.8
4.04100000 0.077611 -149.6 0.996983 -62.68 0.996983 -62.68 0.077623 -155.8
4.04200000 0.077858 -149.6 0.996964 -62.71 0.996964 -62.71 0.077869 -155.8
4.04300000 0.078104 -149.6 0.996945 -62.74 0.996945 -62.74 0.078116 -155.9
4.04400000 0.078351 -149.7 0.996926 -62.77 0.996926 -62.77 0.078363 -155.9
4.04500000 0.078598 -149.7 0.996906 -62.80 0.996906 -62.80 0.078610 -155.9
4.04600000 0.078846 -149.7 0.996887 -62.83 0.996887 -62.83 0.078858 -155.9
4.04700000 0.079094 -149.8 0.996867 -62.86 0.996867 -62.86 0.079107 -156.0
4.04800000 0.079343 -149.8 0.996848 -62.90 0.996848 -62.90 0.079355 -156.0
4.04900000 0.079592 -149.8 0.996828 -62.93 0.996828 -62.93 0.079605 -156.0
4.05000000 0.079841 -149.9 0.996808 -62.96 0.996808 -62.96 0.079854 -156.0
4.05100000 0.080090 -149.9 0.996788 -62.99 0.996788 -62.99 0.080104 -156.1
4.05200000 0.080341 -150.0 0.996768 -63.02 0.996768 -63.02 0.080354 -156.1
4.05300000 0.080591 -150.0 0.996748 -63.05 0.996748 -63.05 0.080605 -156.1
4.05400000 0.080842 -150.0 0.996728 -63.08 0.996728 -63.08 0.080856 -156.1
4.05500000 0.081093 -150.1 0.996707 -63.11 0.996707 -63.11 0.081108 -156.2
4.05600000 0.081345 -150.1 0.996687 -63.14 0.996687 -63.14 0.081359 -156.2
4.05700000 0.081597 -150.1 0.996666 -63.17 0.996666 -63.17 0.081612 -156.2
4.05800000 0.081849 -150.2 0.996646 -63.20 0.996646 -63.20 0.081864 -156.2
4.05900000 0.082102 -150.2 0.996625 -63.23 0.996625 -63.23 0.082117 -156.3
4.06000000 0.082355 -150.2 0.996604 -63.27 0.996604 -63.27 0.082371 -156.3
4.06100000 0.082609 -150.3 0.996583 -63.30 0.996583 -63.30 0.082625 -156.3
4.06200000 0.082863 -150.3 0.996562 -63.33 0.996562 -63.33 0.082879 -156.3
4.06300000 0.083117 -150.3 0.996541 -63.36 0.996541 -63.36 0.083134 -156.4
4.06400000 0.083372 -150.4 0.996520 -63.39 0.996520 -63.39 0.083389 -156.4
4.06500000 0.083628 -150.4 0.996499 -63.42 0.996499 -63.42 0.083644 -156.4
4.06600000 0.083883 -150.4 0.996477 -63.45 0.996477 -63.45 0.083900 -156.4
4.06700000 0.084139 -150.5 0.996456 -63.48 0.996456 -63.48 0.084157 -156.5
4.06800000 0.084396 -150.5 0.996434 -63.51 0.996434 -63.51 0.084413 -156.5
4.06900000 0.084653 -150.6 0.996413 -63.55 0.996413 -63.55 0.084670 -156.5
4.07000000 0.084910 -150.6 0.996391 -63.58 0.996391 -63.58 0.084928 -156.6
4.07100000 0.085168 -150.6 0.996369 -63.61 0.996369 -63.61 0.085186 -156.6
4.07200000 0.085426 -150.7 0.996347 -63.64 0.996347 -63.64 0.085444 -156.6
4.07300000 0.085684 -150.7 0.996325 -63.67 0.996325 -63.67 0.085703 -156.6
4.07400000 0.085943 -150.7 0.996302 -63.70 0.996302 -63.70 0.085962 -156.7
4.07500000 0.086202 -150.8 0.996280 -63.73 0.996280 -63.73 0.086221 -156.7
4.07600000 0.086462 -150.8 0.996258 -63.77 0.996258 -63.77 0.086481 -156.7
4.07700000 0.086722 -150.8 0.996235 -63.80 0.996235 -63.80 0.086742 -156.7
4.07800000 0.086983 -150.9 0.996213 -63.83 0.996213 -63.83 0.087002 -156.8
4.07900000 0.087244 -150.9 0.996190 -63.86 0.996190 -63.86 0.087264 -156.8
4.08000000 0.087505 -151.0 0.996167 -63.89 0.996167 -63.89 0.087525 -156.8
4.08100000 0.087767 -151.0 0.996144 -63.92 0.996144 -63.92 0.087787 -156.9
4.08200000 0.088029 -151.0 0.996121 -63.96 0.996121 -63.96 0.088050 -156.9
4.08300000 0.088292 -151.1 0.996098 -63.99 0.996098 -63.99 0.088312 -156.9
4.08400000 0.088555 -151.1 0.996075 -64.02 0.996075 -64.02 0.088576 -156.9
4.08500000 0.088818 -151.1 0.996051 -64.05 0.996051 -64.05 0.088839 -157.0
4.08600000 0.089082 -151.2 0.996028 -64.08 0.996028 -64.08 0.089103 -157.0
4.08700000 0.089346 -151.2 0.996004 -64.11 0.996004 -64.11 0.089368 -157.0
4.08800000 0.089611 -151.2 0.995980 -64.15 0.995980 -64.15 0.089633 -157.0
4.08900000 0.089876 -151.3 0.995957 -64.18 0.995957 -64.18 0.089898 -157.1
4.09000000 0.090142 -151.3 0.995933 -64.21 0.995933 -64.21 0.090164 -157.1
4.09100000 0.090408 -151.3 0.995909 -64.24 0.995909 -64.24 0.090430 -157.1
4.09200000 0.090674 -151.4 0.995884 -64.27 0.995884 -64.27 0.090697 -157.2
4.09300000 0.090941 -151.4 0.995860 -64.31 0.995860 -64.31 0.090964 -157.2
4.09400000 0.091208 -151.5 0.995836 -64.34 0.995836 -64.34 0.091231 -157.2
4.09500000 0.091476 -151.5 0.995811 -64.37 0.995811 -64.37 0.091499 -157.2
4.09600000 0.091744 -151.5 0.995787 -64.40 0.995787 -64.40 0.091767 -157.3
4.09700000 0.092012 -151.6 0.995762 -64.44 0.995762 -64.44 0.092036 -157.3
4.09800000 0.092281 -151.6 0.995737 -64.47 0.995737 -64.47 0.092305 -157.3
4.09900000 0.092551 -151.6 0.995712 -64.50 0.995712 -64.50 0.092575 -157.4
4.10000000 0.092820 -151.7 0.995687 -64.53 0.995687 -64.53 0.092845 -157.4
4.10100000 0.093091 -151.7 0.995662 -64.56 0.995662 -64.56 0.093115 -157.4
4.10200000 0.093361 -151.7 0.995637 -64.60 0.995637 -64.60 0.093386 -157.4
4.10300000 0.093632 -151.8 0.995612 -64.63 0.995612 -64.63 0.093657 -157.5
4.10400000 0.093904 -151.8 0.995586 -64.66 0.995586 -64.66 0.093929 -157.5
4.10500000 0.094176 -151.9 0.995560 -64.69 0.995560 -64.69 0.094201 -157.5
4.10600000 0.094448 -151.9 0.995535 -64.73 0.995535 -64.73 0.094473 -157.6
4.10700000 0.094721 -151.9 0.995509 -64.76 0.995509 -64.76 0.094746 -157.6
4.10800000 0.094994 -152.0 0.995483 -64.79 0.995483 -64.79 0.095020 -157.6
4.10900000 0.095268 -152.0 0.995457 -64.82 0.995457 -64.82 0.095294 -157.6
4.11000000 0.095542 -152.0 0.995431 -64.86 0.995431 -64.86 0.095568 -157.7
4.11100000 0.095816 -152.1 0.995404 -64.89 0.995404 -64.89 0.095843 -157.7
4.11200000 0.096091 -152.1 0.995378 -64.92 0.995378 -64.92 0.096118 -157.7
4.11300000 0.096367 -152.1 0.995351 -64.95 0.995351 -64.95 0.096393 -157.8
4.11400000 0.096642 -152.2 0.995325 -64.99 0.995325 -64.99 0.096669 -157.8
4.11500000 0.096919 -152.2 0.995298 -65.02 0.995298 -65.02 0.096946 -157.8
4.11600000 0.097195 -152.3 0.995271 -65.05 0.995271 -65.05 0.097222 -157.8
4.11700000 0.097472 -152.3 0.995244 -65.09 0.995244 -65.09 0.097500 -157.9
4.11800000 0.097750 -152.3 0.995217 -65.12 0.995217 -65.12 0.097778 -157.9
4.11900000 0.098028 -152.4 0.995189 -65.15 0.995189 -65.15 0.098056 -157.9
4.12000000 0.098306 -152.4 0.995162 -65.18 0.995162 -65.18 0.098334 -158.0
4.12100000 0.098585 -152.4 0.995134 -65.22 0.995134 -65.22 0.098613 -158.0
4.12200000 0.098865 -152.5 0.995107 -65.25 0.995107 -65.25 0.098893 -158.0
4.12300000 0.099144 -152.5 0.995079 -65.28 0.995079 -65.28 0.099173 -158.0
4.12400000 0.099425 -152.5 0.995051 -65.32 0.995051 -65.32 0.099453 -158.1
4.12500000 0.099705 -152.6 0.995023 -65.35 0.995023 -65.35 0.099734 -158.1
4.12600000 0.099986 -152.6 0.994995 -65.38 0.994995 -65.38 0.100015 -158.1
4.12700000 0.100268 -152.7 0.994967 -65.42 0.994967 -65.42 0.100297 -158.2
4.12800000 0.100550 -152.7 0.994938 -65.45 0.994938 -65.45 0.100579 -158.2
4.12900000 0.100832 -152.7 0.994910 -65.48 0.994910 -65.48 0.100862 -158.2
4.13000000 0.101115 -152.8 0.994881 -65.52 0.994881 -65.52 0.101145 -158.3
4.13100000 0.101398 -152.8 0.994852 -65.55 0.994852 -65.55 0.101428 -158.3
4.13200000 0.101682 -152.8 0.994823 -65.58 0.994823 -65.58 0.101712 -158.3
4.13300000 0.101966 -152.9 0.994794 -65.62 0.994794 -65.62 0.101997 -158.3
4.13400000 0.102251 -152.9 0.994765 -65.65 0.994765 -65.65 0.102281 -158.4
4.13500000 0.102536 -153.0 0.994736 -65.68 0.994736 -65.68 0.102567 -158.4
4.13600000 0.102822 -153.0 0.994707 -65.72 0.994707 -65.72 0.102852 -158.4
4.13700000 0.103108 -153.0 0.994677 -65.75 0.994677 -65.75 0.103139 -158.5
4.13800000 0.103394 -153.1 0.994647 -65.78 0.994647 -65.78 0.103425 -158.5
4.13900000 0.103681 -153.1 0.994618 -65.82 0.994618 -65.82 0.103712 -158.5
4.14000000 0.103969 -153.1 0.994588 -65.85 0.994588 -65.85 0.104000 -158.6
4.14100000 0.104256 -153.2 0.994558 -65.88 0.994558 -65.88 0.104288 -158.6
4.14200000 0.104545 -153.2 0.994527 -65.92 0.994527 -65.92 0.104576 -158.6
4.14300000 0.104834 -153.2 0.994497 -65.95 0.994497 -65.95 0.104865 -158.6
4.14400000 0.105123 -153.3 0.994466 -65.99 0.994466 -65.99 0.105155 -158.7
4.14500000 0.105412 -153.3 0.994436 -66.02 0.994436 -66.02 0.105444 -158.7
4.14600000 0.105702 -153.4 0.994405 -66.05 0.994405 -66.05 0.105735 -158.7
4.14700000 0.105993 -153.4 0.994374 -66.09 0.994374 -66.09 0.106025 -158.8
4.14800000 0.106284 -153.4 0.994343 -66.12 0.994343 -66.12 0.106317 -158.8
4.14900000 0.106576 -153.5 0.994312 -66.16 0.994312 -66.16 0.106608 -158.8
4.15000000 0.106868 -153.5 0.994281 -66.19 0.994281 -66.19 0.106900 -158.9
4.15100000 0.107160 -153.5 0.994249 -66.22 0.994249 -66.22 0.107193 -158.9
4.15200000 0.107453 -153.6 0.994218 -66.26 0.994218 -66.26 0.107486 -158.9
4.15300000 0.107746 -153.6 0.994186 -66.29 0.994186 -66.29 0.107780 -159.0
4.15400000 0.108040 -153.7 0.994154 -66.33 0.994154 -66.33 0.108074 -159.0
4.15500000 0.108334 -153.7 0.994122 -66.36 0.994122 -66.36 0.108368 -159.0
4.15600000 0.108629 -153.7 0.994090 -66.39 0.994090 -66.39 0.108663 -159.0
4.15700000 0.108924 -153.8 0.994058 -66.43 0.994058 -66.43 0.108958 -159.1
4.15800000 0.109220 -153.8 0.994026 -66.46 0.994026 -66.46 0.109254 -159.1
4.15900000 0.109516 -153.8 0.993993 -66.50 0.993993 -66.50 0.109550 -159.1
4.16000000 0.109813 -153.9 0.993960 -66.53 0.993960 -66.53 0.109847 -159.2
4.16100000 0.110110 -153.9 0.993928 -66.57 0.993928 -66.57 0.110144 -159.2
4.16200000 0.110407 -154.0 0.993895 -66.60 0.993895 -66.60 0.110442 -159.2
4.16300000 0.110705 -154.0 0.993861 -66.63 0.993861 -66.63 0.110740 -159.3
4.16400000 0.111004 -154.0 0.993828 -66.67 0.993828 -66.67 0.111039 -159.3
4.16500000 0.111303 -154.1 0.993795 -66.70 0.993795 -66.70 0.111338 -159.3
4.16600000 0.111602 -154.1 0.993761 -66.74 0.993761 -66.74 0.111637 -159.4
4.16700000 0.111902 -154.1 0.993728 -66.77 0.993728 -66.77 0.111938 -159.4
4.16800000 0.112202 -154.2 0.993694 -66.81 0.993694 -66.81 0.112238 -159.4
4.16900000 0.112503 -154.2 0.993660 -66.84 0.993660 -66.84 0.112539 -159.5
4.17000000 0.112805 -154.3 0.993626 -66.88 0.993626 -66.88 0.112841 -159.5
4.17100000 0.113106 -154.3 0.993591 -66.91 0.993591 -66.91 0.113142 -159.5
4.17200000 0.113409 -154.3 0.993557 -66.95 0.993557 -66.95 0.113445 -159.5
4.17300000 0.113712 -154.4 0.993522 -66.98 0.993522 -66.98 0.113748 -159.6
4.17400000 0.114015 -154.4 0.993488 -67.02 0.993488 -67.02 0.114051 -159.6
4.17500000 0.114318 -154.4 0.993453 -67.05 0.993453 -67.05 0.114355 -159.6
4.17600000 0.114623 -154.5 0.993418 -67.09 0.993418 -67.09 0.114659 -159.7
4.17700000 0.114927 -154.5 0.993383 -67.12 0.993383 -67.12 0.114964 -159.7
4.17800000 0.115233 -154.6 0.993347 -67.16 0.993347 -67.16 0.115269 -159.7
4.17900000 0.115538 -154.6 0.993312 -67.19 0.993312 -67.19 0.115575 -159.8
4.18000000 0.115844 -154.6 0.993276 -67.23 0.993276 -67.23 0.115882 -159.8
4.18100000 0.116151 -154.7 0.993241 -67.26 0.993241 -67.26 0.116188 -159.8
4.18200000 0.116458 -154.7 0.993205 -67.30 0.993205 -67.30 0.116495 -159.9
4.18300000 0.116766 -154.7 0.993169 -67.33 0.993169 -67.33 0.116803 -159.9
4.18400000 0.117074 -154.8 0.993132 -67.37 0.993132 -67.37 0.117111 -159.9
4.18500000 0.117382 -154.8 0.993096 -67.40 0.993096 -67.40 0.117420 -160.0
4.18600000 0.117691 -154.9 0.993059 -67.44 0.993059 -67.44 0.117729 -160.0
4.18700000 0.118001 -154.9 0.993023 -67.47 0.993023 -67.47 0.118039 -160.0
4.18800000 0.118311 -154.9 0.992986 -67.51 0.992986 -67.51 0.118349 -160.1
4.18900000 0.118621 -155.0 0.992949 -67.54 0.992949 -67.54 0.118660 -160.1
4.19000000 0.118932 -155.0 0.992912 -67.58 0.992912 -67.58 0.118971 -160.1
4.19100000 0.119244 -155.1 0.992874 -67.62 0.992874 -67.62 0.119282 -160.2
4.19200000 0.119556 -155.1 0.992837 -67.65 0.992837 -67.65 0.119595 -160.2
4.19300000 0.119868 -155.1 0.992799 -67.69 0.992799 -67.69 0.119907 -160.2
4.19400000 0.120181 -155.2 0.992761 -67.72 0.992761 -67.72 0.120220 -160.3
4.19500000 0.120495 -155.2 0.992723 -67.76 0.992723 -67.76 0.120534 -160.3
4.19600000 0.120809 -155.2 0.992685 -67.79 0.992685 -67.79 0.120848 -160.3
4.19700000 0.121123 -155.3 0.992647 -67.83 0.992647 -67.83 0.121163 -160.4
4.19800000 0.121438 -155.3 0.992609 -67.87 0.992609 -67.87 0.121478 -160.4
4.19900000 0.121754 -155.4 0.992570 -67.90 0.992570 -67.90 0.121793 -160.4
4.20000000 0.122069 -155.4 0.992531 -67.94 0.992531 -67.94 0.122109 -160.5
4.20100000 0.122386 -155.4 0.992492 -67.97 0.992492 -67.97 0.122426 -160.5
4.20200000 0.122703 -155.5 0.992453 -68.01 0.992453 -68.01 0.122743 -160.5
4.20300000 0.123020 -155.5 0.992414 -68.05 0.992414 -68.05 0.123060 -160.6
4.20400000 0.123338 -155.6 0.992375 -68.08 0.992375 -68.08 0.123378 -160.6
4.20500000 0.123657 -155.6 0.992335 -68.12 0.992335 -68.12 0.123697 -160.6
4.20600000 0.123976 -155.6 0.992295 -68.15 0.992295 -68.15 0.124016 -160.7
4.20700000 0.124295 -155.7 0.992255 -68.19 0.992255 -68.19 0.124336 -160.7
4.20800000 0.124615 -155.7 0.992215 -68.23 0.992215 -68.23 0.124656 -160.7
4.20900000 0.124936 -155.7 0.992175 -68.26 0.992175 -68.26 0.124976 -160.8
4.21000000 0.125257 -155.8 0.992134 -68.30 0.992134 -68.30 0.125297 -160.8
4.21100000 0.125578 -155.8 0.992094 -68.34 0.992094 -68.34 0.125619 -160.8
4.21200000 0.125900 -155.9 0.992053 -68.37 0.992053 -68.37 0.125941 -160.9
4.21300000 0.126223 -155.9 0.992012 -68.41 0.992012 -68.41 0.126264 -160.9
4.21400000 0.126546 -155.9 0.991971 -68.44 0.991971 -68.44 0.126587 -160.9
4.21500000 0.126869 -156.0 0.991930 -68.48 0.991930 -68.48 0.126910 -161.0
4.21600000 0.127193 -156.0 0.991888 -68.52 0.991888 -68.52 0.127235 -161.0
4.21700000 0.127518 -156.1 0.991847 -68.55 0.991847 -68.55 0.127559 -161.0
4.21800000 0.127843 -156.1 0.991805 -68.59 0.991805 -68.59 0.127884 -161.1
4.21900000 0.128168 -156.1 0.991763 -68.63 0.991763 -68.63 0.128210 -161.1
4.22000000 0.128494 -156.2 0.991721 -68.66 0.991721 -68.66 0.128536 -161.1
4.22100000 0.128821 -156.2 0.991678 -68.70 0.991678 -68.70 0.128863 -161.2
4.22200000 0.129148 -156.3 0.991636 -68.74 0.991636 -68.74 0.129190 -161.2
4.22300000 0.129476 -156.3 0.991593 -68.78 0.991593 -68.78 0.129518 -161.2
4.22400000 0.129804 -156.3 0.991550 -68.81 0.991550 -68.81 0.129846 -161.3
4.22500000 0.130132 -156.4 0.991507 -68.85 0.991507 -68.85 0.130175 -161.3
4.22600000 0.130462 -156.4 0.991464 -68.89 0.991464 -68.89 0.130504 -161.3
4.22700000 0.130791 -156.5 0.991420 -68.92 0.991420 -68.92 0.130834 -161.4
4.22800000 0.131121 -156.5 0.991377 -68.96 0.991377 -68.96 0.131164 -161.4
4.22900000 0.131452 -156.5 0.991333 -69.00 0.991333 -69.00 0.131495 -161.4
4.23000000 0.131783 -156.6 0.991289 -69.03 0.991289 -69.03 0.131826 -161.5
4.23100000 0.132115 -156.6 0.991245 -69.07 0.991245 -69.07 0.132158 -161.5
4.23200000 0.132448 -156.7 0.991201 -69.11 0.991201 -69.11 0.132491 -161.6
4.23300000 0.132780 -156.7 0.991156 -69.15 0.991156 -69.15 0.132824 -161.6
4.23400000 0.133114 -156.7 0.991111 -69.18 0.991111 -69.18 0.133157 -161.6
4.23500000 0.133448 -156.8 0.991067 -69.22 0.991067 -69.22 0.133491 -161.7
4.23600000 0.133782 -156.8 0.991021 -69.26 0.991021 -69.26 0.133826 -161.7
4.23700000 0.134117 -156.9 0.990976 -69.30 0.990976 -69.30 0.134161 -161.7
4.23800000 0.134452 -156.9 0.990931 -69.33 0.990931 -69.33 0.134496 -161.8
4.23900000 0.134788 -156.9 0.990885 -69.37 0.990885 -69.37 0.134832 -161.8
4.24000000 0.135125 -157.0 0.990839 -69.41 0.990839 -69.41 0.135169 -161.8
4.24100000 0.135462 -157.0 0.990793 -69.45 0.990793 -69.45 0.135506 -161.9
4.24200000 0.135800 -157.1 0.990747 -69.48 0.990747 -69.48 0.135844 -161.9
4.24300000 0.136138 -157.1 0.990701 -69.52 0.990701 -69.52 0.136182 -161.9
4.24400000 0.136476 -157.1 0.990654 -69.56 0.990654 -69.56 0.136521 -162.0
4.24500000 0.136815 -157.2 0.990607 -69.60 0.990607 -69.60 0.136860 -162.0
4.24600000 0.137155 -157.2 0.990560 -69.64 0.990560 -69.64 0.137200 -162.0
4.24700000 0.137495 -157.3 0.990513 -69.67 0.990513 -69.67 0.137540 -162.1
4.24800000 0.137836 -157.3 0.990466 -69.71 0.990466 -69.71 0.137881 -162.1
4.24900000 0.138177 -157.3 0.990418 -69.75 0.990418 -69.75 0.138222 -162.2
4.25000000 0.138519 -157.4 0.990371 -69.79 0.990371 -69.79 0.138564 -162.2
4.25100000 0.138862 -157.4 0.990323 -69.83 0.990323 -69.83 0.138907 -162.2
4.25200000 0.139205 -157.5 0.990275 -69.86 0.990275 -69.86 0.139250 -162.3
4.25300000 0.139548 -157.5 0.990226 -69.90 0.990226 -69.90 0.139593 -162.3
4.25400000 0.139892 -157.5 0.990178 -69.94 0.990178 -69.94 0.139937 -162.3
4.25500000 0.140237 -157.6 0.990129 -69.98 0.990129 -69.98 0.140282 -162.4
4.25600000 0.140582 -157.6 0.990080 -70.02 0.990080 -70.02 0.140627 -162.4
4.25700000 0.140927 -157.7 0.990031 -70.05 0.990031 -70.05 0.140973 -162.4
4.25800000 0.141274 -157.7 0.989982 -70.09 0.989982 -70.09 0.141319 -162.5
4.25900000 0.141620 -157.7 0.989932 -70.13 0.989932 -70.13 0.141666 -162.5
4.26000000 0.141968 -157.8 0.989882 -70.17 0.989882 -70.17 0.142013 -162.6
4.26100000 0.142315 -157.8 0.989832 -70.21 0.989832 -70.21 0.142361 -162.6
4.26200000 0.142664 -157.9 0.989782 -70.25 0.989782 -70.25 0.142709 -162.6
4.26300000 0.143013 -157.9 0.989732 -70.29 0.989732 -70.29 0.143058 -162.7
4.26400000 0.143362 -157.9 0.989681 -70.32 0.989681 -70.32 0.143408 -162.7
4.26500000 0.143712 -158.0 0.989631 -70.36 0.989631 -70.36 0.143758 -162.7
4.26600000 0.144063 -158.0 0.989580 -70.40 0.989580 -70.40 0.144109 -162.8
4.26700000 0.144414 -158.1 0.989529 -70.44 0.989529 -70.44 0.144460 -162.8
4.26800000 0.144765 -158.1 0.989477 -70.48 0.989477 -70.48 0.144812 -162.8
4.26900000 0.145118 -158.1 0.989426 -70.52 0.989426 -70.52 0.145164 -162.9
4.27000000 0.145470 -158.2 0.989374 -70.56 0.989374 -70.56 0.145517 -162.9
4.27100000 0.145824 -158.2 0.989322 -70.60 0.989322 -70.60 0.145870 -163.0
4.27200000 0.146178 -158.3 0.989270 -70.64 0.989270 -70.64 0.146224 -163.0
4.27300000 0.146532 -158.3 0.989217 -70.68 0.989217 -70.68 0.146579 -163.0
4.27400000 0.146887 -158.4 0.989164 -70.71 0.989164 -70.71 0.146934 -163.1
4.27500000 0.147243 -158.4 0.989112 -70.75 0.989112 -70.75 0.147289 -163.1
4.27600000 0.147599 -158.4 0.989059 -70.79 0.989059 -70.79 0.147645 -163.1
4.27700000 0.147955 -158.5 0.989005 -70.83 0.989005 -70.83 0.148002 -163.2
4.27800000 0.148313 -158.5 0.988952 -70.87 0.988952 -70.87 0.148359 -163.2
4.27900000 0.148670 -158.6 0.988898 -70.91 0.988898 -70.91 0.148717 -163.3
4.28000000 0.149029 -158.6 0.988844 -70.95 0.988844 -70.95 0.149076 -163.3
4.28100000 0.149388 -158.6 0.988790 -70.99 0.988790 -70.99 0.149435 -163.3
4.28200000 0.149747 -158.7 0.988736 -71.03 0.988736 -71.03 0.149794 -163.4
4.28300000 0.150107 -158.7 0.988681 -71.07 0.988681 -71.07 0.150154 -163.4
4.28400000 0.150468 -158.8 0.988626 -71.11 0.988626 -71.11 0.150515 -163.4
4.28500000 0.150829 -158.8 0.988571 -71.15 0.988571 -71.15 0.150876 -163.5
4.28600000 0.151191 -158.8 0.988516 -71.19 0.988516 -71.19 0.151238 -163.5
4.28700000 0.151553 -158.9 0.988460 -71.23 0.988460 -71.23 0.151600 -163.6
4.28800000 0.151916 -158.9 0.988405 -71.27 0.988405 -71.27 0.151963 -163.6
4.28900000 0.152279 -159.0 0.988349 -71.31 0.988349 -71.31 0.152327 -163.6
4.29000000 0.152643 -159.0 0.988293 -71.35 0.988293 -71.35 0.152691 -163.7
4.29100000 0.153008 -159.1 0.988236 -71.39 0.988236 -71.39 0.153055 -163.7
4.29200000 0.153373 -159.1 0.988180 -71.43 0.988180 -71.43 0.153421 -163.7
4.29300000 0.153739 -159.1 0.988123 -71.47 0.988123 -71.47 0.153786 -163.8
4.29400000 0.154105 -159.2 0.988066 -71.51 0.988066 -71.51 0.154153 -163.8
4.29500000 0.154472 -159.2 0.988009 -71.55 0.988009 -71.55 0.154520 -163.9
4.29600000 0.154839 -159.3 0.987951 -71.59 0.987951 -71.59 0.154887 -163.9
4.29700000 0.155207 -159.3 0.987893 -71.63 0.987893 -71.63 0.155255 -163.9
4.29800000 0.155576 -159.4 0.987835 -71.67 0.987835 -71.67 0.155624 -164.0
4.29900000 0.155945 -159.4 0.987777 -71.71 0.987777 -71.71 0.155993 -164.0
4.30000000 0.156315 -159.4 0.987719 -71.75 0.987719 -71.75 0.156363 -164.0
4.30100000 0.156685 -159.5 0.987660 -71.79 0.987660 -71.79 0.156733 -164.1
4.30200000 0.157056 -159.5 0.987601 -71.83 0.987601 -71.83 0.157104 -164.1
4.30300000 0.157427 -159.6 0.987542 -71.87 0.987542 -71.87 0.157476 -164.2
4.30400000 0.157799 -159.6 0.987483 -71.91 0.987483 -71.91 0.157848 -164.2
4.30500000 0.158172 -159.6 0.987423 -71.95 0.987423 -71.95 0.158220 -164.2
4.30600000 0.158545 -159.7 0.987363 -71.99 0.987363 -71.99 0.158594 -164.3
4.30700000 0.158919 -159.7 0.987303 -72.03 0.987303 -72.03 0.158968 -164.3
4.30800000 0.159293 -159.8 0.987243 -72.07 0.987243 -72.07 0.159342 -164.4
4.30900000 0.159668 -159.8 0.987182 -72.12 0.987182 -72.12 0.159717 -164.4
4.31000000 0.160044 -159.9 0.987121 -72.16 0.987121 -72.16 0.160093 -164.4
4.31100000 0.160420 -159.9 0.987060 -72.20 0.987060 -72.20 0.160469 -164.5
4.31200000 0.160797 -159.9 0.986999 -72.24 0.986999 -72.24 0.160846 -164.5
4.31300000 0.161174 -160.0 0.986937 -72.28 0.986937 -72.28 0.161223 -164.6
4.31400000 0.161552 -160.0 0.986875 -72.32 0.986875 -72.32 0.161601 -164.6
4.31500000 0.161931 -160.1 0.986813 -72.36 0.986813 -72.36 0.161979 -164.6
4.31600000 0.162310 -160.1 0.986751 -72.40 0.986751 -72.40 0.162359 -164.7
4.31700000 0.162689 -160.2 0.986689 -72.44 0.986689 -72.44 0.162738 -164.7
4.31800000 0.163070 -160.2 0.986626 -72.49 0.986626 -72.49 0.163119 -164.8
4.31900000 0.163451 -160.3 0.986563 -72.53 0.986563 -72.53 0.163500 -164.8
4.32000000 0.163832 -160.3 0.986500 -72.57 0.986500 -72.57 0.163881 -164.8
4.32100000 0.164214 -160.3 0.986436 -72.61 0.986436 -72.61 0.164263 -164.9
4.32200000 0.164597 -160.4 0.986372 -72.65 0.986372 -72.65 0.164646 -164.9
4.32300000 0.164980 -160.4 0.986308 -72.69 0.986308 -72.69 0.165029 -165.0
4.32400000 0.165364 -160.5 0.986244 -72.74 0.986244 -72.74 0.165413 -165.0
4.32500000 0.165748 -160.5 0.986179 -72.78 0.986179 -72.78 0.165797 -165.0
4.32600000 0.166133 -160.6 0.986115 -72.82 0.986115 -72.82 0.166182 -165.1
4.32700000 0.166519 -160.6 0.986050 -72.86 0.986050 -72.86 0.166568 -165.1
4.32800000 0.166905 -160.6 0.985984 -72.90 0.985984 -72.90 0.166954 -165.2
4.32900000 0.167292 -160.7 0.985919 -72.94 0.985919 -72.94 0.167341 -165.2
4.33000000 0.167679 -160.7 0.985853 -72.99 0.985853 -72.99 0.167729 -165.2
4.33100000 0.168067 -160.8 0.985787 -73.03 0.985787 -73.03 0.168117 -165.3
4.33200000 0.168456 -160.8 0.985720 -73.07 0.985720 -73.07 0.168505 -165.3
4.33300000 0.168845 -160.9 0.985654 -73.11 0.985654 -73.11 0.168895 -165.4
4.33400000 0.169235 -160.9 0.985587 -73.16 0.985587 -73.16 0.169285 -165.4
4.33500000 0.169626 -160.9 0.985520 -73.20 0.985520 -73.20 0.169675 -165.4
4.33600000 0.170017 -161.0 0.985452 -73.24 0.985452 -73.24 0.170066 -165.5
4.33700000 0.170408 -161.0 0.985385 -73.28 0.985385 -73.28 0.170458 -165.5
4.33800000 0.170801 -161.1 0.985317 -73.32 0.985317 -73.32 0.170850 -165.6
4.33900000 0.171193 -161.1 0.985249 -73.37 0.985249 -73.37 0.171243 -165.6
4.34000000 0.171587 -161.2 0.985180 -73.41 0.985180 -73.41 0.171637 -165.6
4.34100000 0.171981 -161.2 0.985111 -73.45 0.985111 -73.45 0.172031 -165.7
4.34200000 0.172376 -161.3 0.985042 -73.49 0.985042 -73.49 0.172426 -165.7
4.34300000 0.172771 -161.3 0.984973 -73.54 0.984973 -73.54 0.172821 -165.8
4.34400000 0.173167 -161.3 0.984904 -73.58 0.984904 -73.58 0.173217 -165.8
4.34500000 0.173564 -161.4 0.984834 -73.62 0.984834 -73.62 0.173613 -165.8
4.34600000 0.173961 -161.4 0.984764 -73.67 0.984764 -73.67 0.174011 -165.9
4.34700000 0.174359 -161.5 0.984693 -73.71 0.984693 -73.71 0.174408 -165.9
4.34800000 0.174757 -161.5 0.984623 -73.75 0.984623 -73.75 0.174807 -166.0
4.34900000 0.175156 -161.6 0.984552 -73.79 0.984552 -73.79 0.175206 -166.0
4.35000000 0.175556 -161.6 0.984481 -73.84 0.984481 -73.84 0.175606 -166.1
4.35100000 0.175956 -161.7 0.984409 -73.88 0.984409 -73.88 0.176006 -166.1
4.35200000 0.176357 -161.7 0.984337 -73.92 0.984337 -73.92 0.176407 -166.1
4.35300000 0.176758 -161.7 0.984265 -73.97 0.984265 -73.97 0.176808 -166.2
4.35400000 0.177160 -161.8 0.984193 -74.01 0.984193 -74.01 0.177210 -166.2
4.35500000 0.177563 -161.8 0.984120 -74.05 0.984120 -74.05 0.177613 -166.3
4.35600000 0.177966 -161.9 0.984047 -74.10 0.984047 -74.10 0.178016 -166.3
4.35700000 0.178370 -161.9 0.983974 -74.14 0.983974 -74.14 0.178420 -166.3
4.35800000 0.178775 -162.0 0.983901 -74.18 0.983901 -74.18 0.178825 -166.4
4.35900000 0.179180 -162.0 0.983827 -74.23 0.983827 -74.23 0.179230 -166.4
4.36000000 0.179586 -162.1 0.983753 -74.27 0.983753 -74.27 0.179636 -166.5
4.36100000 0.179992 -162.1 0.983679 -74.32 0.983679 -74.32 0.180043 -166.5
4.36200000 0.180400 -162.2 0.983604 -74.36 0.983604 -74.36 0.180450 -166.6
4.36300000 0.180807 -162.2 0.983529 -74.40 0.983529 -74.40 0.180858 -166.6
4.36400000 0.181216 -162.2 0.983454 -74.45 0.983454 -74.45 0.181266 -166.6
4.36500000 0.181625 -162.3 0.983379 -74.49 0.983379 -74.49 0.181675 -166.7
4.36600000 0.182034 -162.3 0.983303 -74.54 0.983303 -74.54 0.182085 -166.7
4.36700000 0.182445 -162.4 0.983227 -74.58 0.983227 -74.58 0.182495 -166.8
4.36800000 0.182855 -162.4 0.983150 -74.62 0.983150 -74.62 0.182906 -166.8
4.36900000 0.183267 -162.5 0.983074 -74.67 0.983074 -74.67 0.183317 -166.9
4.37000000 0.183679 -162.5 0.982997 -74.71 0.982997 -74.71 0.183729 -166.9
4.37100000 0.184092 -162.6 0.982920 -74.76 0.982920 -74.76 0.184142 -166.9
4.37200000 0.184505 -162.6 0.982842 -74.80 0.982842 -74.80 0.184556 -167.0
4.37300000 0.184919 -162.7 0.982764 -74.85 0.982764 -74.85 0.184970 -167.0
4.37400000 0.185334 -162.7 0.982686 -74.89 0.982686 -74.89 0.185384 -167.1
4.37500000 0.185749 -162.7 0.982608 -74.93 0.982608 -74.93 0.185800 -167.1
4.37600000 0.186165 -162.8 0.982529 -74.98 0.982529 -74.98 0.186216 -167.2
4.37700000 0.186582 -162.8 0.982450 -75.02 0.982450 -75.02 0.186632 -167.2
4.37800000 0.186999 -162.9 0.982371 -75.07 0.982371 -75.07 0.187049 -167.2
4.37900000 0.187417 -162.9 0.982291 -75.11 0.982291 -75.11 0.187467 -167.3
4.38000000 0.187835 -163.0 0.982211 -75.16 0.982211 -75.16 0.187886 -167.3
4.38100000 0.188255 -163.0 0.982131 -75.20 0.982131 -75.20 0.188305 -167.4
4.38200000 0.188674 -163.1 0.982050 -75.25 0.982050 -75.25 0.188725 -167.4
4.38300000 0.189095 -163.1 0.981969 -75.29 0.981969 -75.29 0.189145 -167.5
4.38400000 0.189516 -163.2 0.981888 -75.34 0.981888 -75.34 0.189566 -167.5
4.38500000 0.189938 -163.2 0.981806 -75.38 0.981806 -75.38 0.189988 -167.5
4.38600000 0.190360 -163.3 0.981725 -75.43 0.981725 -75.43 0.190410 -167.6
4.38700000 0.190783 -163.3 0.981643 -75.47 0.981643 -75.47 0.190833 -167.6
4.38800000 0.191207 -163.4 0.981560 -75.52 0.981560 -75.52 0.191257 -167.7
4.38900000 0.191631 -163.4 0.981477 -75.56 0.981477 -75.56 0.191681 -167.7
4.39000000 0.192056 -163.4 0.981394 -75.61 0.981394 -75.61 0.192106 -167.8
4.39100000 0.192481 -163.5 0.981311 -75.66 0.981311 -75.66 0.192532 -167.8
4.39200000 0.192908 -163.5 0.981227 -75.70 0.981227 -75.70 0.192958 -167.9