! Sonnet Data File
! From: emgraph Version : 16.52
! From Emgraph Data: 171106_xz_squiggleX_Res5G_12_EvenBrg
! Data File Written: 11/07/2017 16:55:48
!< HDATE 11/07/2017 15:13:00
!< MDATE 11/07/2017 15:13:00
!< PARAMS
!< dCr = 12.0
!< Squiggle_length = 16.0
!< END PARAMS
# GHZ S MA R 50.00000
4.00000000 0.065091 -119.1 0.997877 -31.06 0.997877 -31.06 0.065091 -123.0
!< P1 F=4.0 Eeff=(6.53975032 -3.0165e-5) Z0=(50.7196192 1.16963e-4) R=0.01177958 C=0.01558055 
!< P2 F=4.0 Eeff=(6.53975032 -3.0165e-5) Z0=(50.7196192 1.16963e-4) R=0.01177958 C=0.01558055 
4.00100000 0.065234 -119.2 0.997867 -31.07 0.997867 -31.07 0.065234 -123.0
4.00200000 0.065377 -119.2 0.997858 -31.09 0.997858 -31.09 0.065377 -123.0
4.00300000 0.065520 -119.2 0.997848 -31.10 0.997848 -31.10 0.065520 -123.0
4.00400000 0.065663 -119.2 0.997839 -31.12 0.997839 -31.12 0.065663 -123.0
4.00500000 0.065807 -119.2 0.997829 -31.13 0.997829 -31.13 0.065806 -123.0
4.00600000 0.065951 -119.2 0.997819 -31.15 0.997819 -31.15 0.065950 -123.1
4.00700000 0.066095 -119.3 0.997809 -31.16 0.997809 -31.16 0.066094 -123.1
4.00800000 0.066240 -119.3 0.997800 -31.18 0.997800 -31.18 0.066239 -123.1
4.00900000 0.066384 -119.3 0.997790 -31.19 0.997790 -31.19 0.066383 -123.1
4.01000000 0.066529 -119.3 0.997780 -31.21 0.997780 -31.21 0.066528 -123.1
4.01100000 0.066675 -119.3 0.997770 -31.22 0.997770 -31.22 0.066673 -123.1
4.01200000 0.066820 -119.3 0.997760 -31.24 0.997760 -31.24 0.066819 -123.1
4.01300000 0.066966 -119.4 0.997750 -31.25 0.997750 -31.25 0.066964 -123.2
4.01400000 0.067112 -119.4 0.997740 -31.27 0.997740 -31.27 0.067110 -123.2
4.01500000 0.067258 -119.4 0.997730 -31.28 0.997730 -31.28 0.067256 -123.2
4.01600000 0.067405 -119.4 0.997720 -31.30 0.997720 -31.30 0.067403 -123.2
4.01700000 0.067552 -119.4 0.997710 -31.31 0.997710 -31.31 0.067549 -123.2
4.01800000 0.067699 -119.4 0.997700 -31.33 0.997700 -31.33 0.067696 -123.2
4.01900000 0.067846 -119.5 0.997689 -31.34 0.997689 -31.34 0.067844 -123.2
4.02000000 0.067994 -119.5 0.997679 -31.36 0.997679 -31.36 0.067991 -123.3
4.02100000 0.068142 -119.5 0.997669 -31.37 0.997669 -31.37 0.068139 -123.3
4.02200000 0.068290 -119.5 0.997659 -31.39 0.997659 -31.39 0.068287 -123.3
4.02300000 0.068439 -119.5 0.997648 -31.40 0.997648 -31.40 0.068435 -123.3
4.02400000 0.068587 -119.5 0.997638 -31.42 0.997638 -31.42 0.068584 -123.3
4.02500000 0.068736 -119.6 0.997627 -31.43 0.997627 -31.43 0.068733 -123.3
4.02600000 0.068886 -119.6 0.997617 -31.45 0.997617 -31.45 0.068882 -123.3
4.02700000 0.069035 -119.6 0.997606 -31.46 0.997606 -31.46 0.069031 -123.4
4.02800000 0.069185 -119.6 0.997596 -31.48 0.997596 -31.48 0.069181 -123.4
4.02900000 0.069335 -119.6 0.997585 -31.49 0.997585 -31.49 0.069331 -123.4
4.03000000 0.069486 -119.6 0.997574 -31.51 0.997574 -31.51 0.069481 -123.4
4.03100000 0.069636 -119.6 0.997564 -31.52 0.997564 -31.52 0.069632 -123.4
4.03200000 0.069787 -119.7 0.997553 -31.54 0.997553 -31.54 0.069783 -123.4
4.03300000 0.069938 -119.7 0.997542 -31.55 0.997542 -31.55 0.069934 -123.4
4.03400000 0.070090 -119.7 0.997531 -31.57 0.997531 -31.57 0.070085 -123.5
4.03500000 0.070242 -119.7 0.997520 -31.58 0.997520 -31.58 0.070237 -123.5
4.03600000 0.070394 -119.7 0.997509 -31.60 0.997509 -31.60 0.070389 -123.5
4.03700000 0.070546 -119.7 0.997498 -31.62 0.997498 -31.62 0.070541 -123.5
4.03800000 0.070699 -119.8 0.997487 -31.63 0.997487 -31.63 0.070693 -123.5
4.03900000 0.070852 -119.8 0.997476 -31.65 0.997476 -31.65 0.070846 -123.5
4.04000000 0.071005 -119.8 0.997465 -31.66 0.997465 -31.66 0.070999 -123.5
4.04100000 0.071158 -119.8 0.997454 -31.68 0.997454 -31.68 0.071153 -123.6
4.04200000 0.071312 -119.8 0.997443 -31.69 0.997443 -31.69 0.071306 -123.6
4.04300000 0.071466 -119.8 0.997432 -31.71 0.997432 -31.71 0.071460 -123.6
4.04400000 0.071620 -119.9 0.997420 -31.72 0.997420 -31.72 0.071614 -123.6
4.04500000 0.071775 -119.9 0.997409 -31.74 0.997409 -31.74 0.071769 -123.6
4.04600000 0.071930 -119.9 0.997398 -31.75 0.997398 -31.75 0.071923 -123.6
4.04700000 0.072085 -119.9 0.997386 -31.77 0.997386 -31.77 0.072078 -123.6
4.04800000 0.072240 -119.9 0.997375 -31.79 0.997375 -31.79 0.072234 -123.7
4.04900000 0.072396 -119.9 0.997363 -31.80 0.997363 -31.80 0.072389 -123.7
4.05000000 0.072552 -120.0 0.997352 -31.82 0.997352 -31.82 0.072545 -123.7
4.05100000 0.072709 -120.0 0.997340 -31.83 0.997340 -31.83 0.072701 -123.7
4.05200000 0.072865 -120.0 0.997328 -31.85 0.997328 -31.85 0.072858 -123.7
4.05300000 0.073022 -120.0 0.997317 -31.86 0.997317 -31.86 0.073015 -123.7
4.05400000 0.073179 -120.0 0.997305 -31.88 0.997305 -31.88 0.073172 -123.8
4.05500000 0.073337 -120.0 0.997293 -31.90 0.997293 -31.90 0.073329 -123.8
4.05600000 0.073494 -120.1 0.997281 -31.91 0.997281 -31.91 0.073487 -123.8
4.05700000 0.073653 -120.1 0.997269 -31.93 0.997269 -31.93 0.073645 -123.8
4.05800000 0.073811 -120.1 0.997257 -31.94 0.997257 -31.94 0.073803 -123.8
4.05900000 0.073970 -120.1 0.997246 -31.96 0.997246 -31.96 0.073961 -123.8
4.06000000 0.074128 -120.1 0.997233 -31.97 0.997233 -31.97 0.074120 -123.8
4.06100000 0.074288 -120.1 0.997221 -31.99 0.997221 -31.99 0.074279 -123.9
4.06200000 0.074447 -120.2 0.997209 -32.01 0.997209 -32.01 0.074439 -123.9
4.06300000 0.074607 -120.2 0.997197 -32.02 0.997197 -32.02 0.074598 -123.9
4.06400000 0.074767 -120.2 0.997185 -32.04 0.997185 -32.04 0.074758 -123.9
4.06500000 0.074928 -120.2 0.997173 -32.05 0.997173 -32.05 0.074919 -123.9
4.06600000 0.075088 -120.2 0.997160 -32.07 0.997160 -32.07 0.075079 -123.9
4.06700000 0.075249 -120.2 0.997148 -32.08 0.997148 -32.08 0.075240 -123.9
4.06800000 0.075411 -120.3 0.997135 -32.10 0.997135 -32.10 0.075401 -124.0
4.06900000 0.075572 -120.3 0.997123 -32.12 0.997123 -32.12 0.075563 -124.0
4.07000000 0.075734 -120.3 0.997110 -32.13 0.997110 -32.13 0.075725 -124.0
4.07100000 0.075896 -120.3 0.997098 -32.15 0.997098 -32.15 0.075887 -124.0
4.07200000 0.076059 -120.3 0.997085 -32.16 0.997085 -32.16 0.076049 -124.0
4.07300000 0.076222 -120.3 0.997073 -32.18 0.997073 -32.18 0.076212 -124.0
4.07400000 0.076385 -120.4 0.997060 -32.20 0.997060 -32.20 0.076375 -124.1
4.07500000 0.076548 -120.4 0.997047 -32.21 0.997047 -32.21 0.076538 -124.1
4.07600000 0.076712 -120.4 0.997034 -32.23 0.997034 -32.23 0.076702 -124.1
4.07700000 0.076876 -120.4 0.997021 -32.24 0.997021 -32.24 0.076866 -124.1
4.07800000 0.077041 -120.4 0.997009 -32.26 0.997009 -32.26 0.077030 -124.1
4.07900000 0.077205 -120.4 0.996996 -32.28 0.996996 -32.28 0.077195 -124.1
4.08000000 0.077370 -120.5 0.996983 -32.29 0.996983 -32.29 0.077360 -124.1
4.08100000 0.077536 -120.5 0.996969 -32.31 0.996969 -32.31 0.077525 -124.2
4.08200000 0.077701 -120.5 0.996956 -32.32 0.996956 -32.32 0.077690 -124.2
4.08300000 0.077867 -120.5 0.996943 -32.34 0.996943 -32.34 0.077856 -124.2
4.08400000 0.078033 -120.5 0.996930 -32.36 0.996930 -32.36 0.078022 -124.2
4.08500000 0.078200 -120.6 0.996917 -32.37 0.996917 -32.37 0.078188 -124.2
4.08600000 0.078367 -120.6 0.996903 -32.39 0.996903 -32.39 0.078355 -124.2
4.08700000 0.078534 -120.6 0.996890 -32.41 0.996890 -32.41 0.078522 -124.3
4.08800000 0.078701 -120.6 0.996876 -32.42 0.996876 -32.42 0.078690 -124.3
4.08900000 0.078869 -120.6 0.996863 -32.44 0.996863 -32.44 0.078857 -124.3
4.09000000 0.079037 -120.6 0.996849 -32.45 0.996849 -32.45 0.079025 -124.3
4.09100000 0.079206 -120.7 0.996836 -32.47 0.996836 -32.47 0.079194 -124.3
4.09200000 0.079374 -120.7 0.996822 -32.49 0.996822 -32.49 0.079362 -124.3
4.09300000 0.079543 -120.7 0.996808 -32.50 0.996808 -32.50 0.079531 -124.4
4.09400000 0.079713 -120.7 0.996795 -32.52 0.996795 -32.52 0.079700 -124.4
4.09500000 0.079882 -120.7 0.996781 -32.54 0.996781 -32.54 0.079870 -124.4
4.09600000 0.080052 -120.7 0.996767 -32.55 0.996767 -32.55 0.080040 -124.4
4.09700000 0.080223 -120.8 0.996753 -32.57 0.996753 -32.57 0.080210 -124.4
4.09800000 0.080393 -120.8 0.996739 -32.59 0.996739 -32.59 0.080381 -124.4
4.09900000 0.080564 -120.8 0.996725 -32.60 0.996725 -32.60 0.080551 -124.4
4.10000000 0.080736 -120.8 0.996711 -32.62 0.996711 -32.62 0.080723 -124.5
4.10100000 0.080907 -120.8 0.996697 -32.63 0.996697 -32.63 0.080894 -124.5
4.10200000 0.081079 -120.8 0.996682 -32.65 0.996682 -32.65 0.081066 -124.5
4.10300000 0.081252 -120.9 0.996668 -32.67 0.996668 -32.67 0.081238 -124.5
4.10400000 0.081424 -120.9 0.996654 -32.68 0.996654 -32.68 0.081411 -124.5
4.10500000 0.081597 -120.9 0.996639 -32.70 0.996639 -32.70 0.081583 -124.5
4.10600000 0.081770 -120.9 0.996625 -32.72 0.996625 -32.72 0.081757 -124.6
4.10700000 0.081944 -120.9 0.996610 -32.73 0.996610 -32.73 0.081930 -124.6
4.10800000 0.082118 -120.9 0.996596 -32.75 0.996596 -32.75 0.082104 -124.6
4.10900000 0.082292 -121.0 0.996581 -32.77 0.996581 -32.77 0.082278 -124.6
4.11000000 0.082467 -121.0 0.996566 -32.78 0.996566 -32.78 0.082453 -124.6
4.11100000 0.082642 -121.0 0.996552 -32.80 0.996552 -32.80 0.082627 -124.6
4.11200000 0.082817 -121.0 0.996537 -32.82 0.996537 -32.82 0.082802 -124.7
4.11300000 0.082992 -121.0 0.996522 -32.83 0.996522 -32.83 0.082978 -124.7
4.11400000 0.083168 -121.1 0.996507 -32.85 0.996507 -32.85 0.083154 -124.7
4.11500000 0.083345 -121.1 0.996492 -32.87 0.996492 -32.87 0.083330 -124.7
4.11600000 0.083521 -121.1 0.996477 -32.88 0.996477 -32.88 0.083506 -124.7
4.11700000 0.083698 -121.1 0.996462 -32.90 0.996462 -32.90 0.083683 -124.7
4.11800000 0.083875 -121.1 0.996447 -32.92 0.996447 -32.92 0.083860 -124.8
4.11900000 0.084053 -121.1 0.996432 -32.93 0.996432 -32.93 0.084038 -124.8
4.12000000 0.084231 -121.2 0.996416 -32.95 0.996416 -32.95 0.084216 -124.8
4.12100000 0.084409 -121.2 0.996401 -32.97 0.996401 -32.97 0.084394 -124.8
4.12200000 0.084588 -121.2 0.996386 -32.98 0.996386 -32.98 0.084572 -124.8
4.12300000 0.084767 -121.2 0.996370 -33.00 0.996370 -33.00 0.084751 -124.8
4.12400000 0.084946 -121.2 0.996355 -33.02 0.996355 -33.02 0.084930 -124.8
4.12500000 0.085126 -121.2 0.996339 -33.04 0.996339 -33.04 0.085110 -124.9
4.12600000 0.085306 -121.3 0.996323 -33.05 0.996323 -33.05 0.085290 -124.9
4.12700000 0.085486 -121.3 0.996308 -33.07 0.996308 -33.07 0.085470 -124.9
4.12800000 0.085667 -121.3 0.996292 -33.09 0.996292 -33.09 0.085651 -124.9
4.12900000 0.085848 -121.3 0.996276 -33.10 0.996276 -33.10 0.085831 -124.9
4.13000000 0.086029 -121.3 0.996260 -33.12 0.996260 -33.12 0.086013 -124.9
4.13100000 0.086211 -121.4 0.996244 -33.14 0.996244 -33.14 0.086194 -125.0
4.13200000 0.086393 -121.4 0.996228 -33.15 0.996228 -33.15 0.086376 -125.0
4.13300000 0.086575 -121.4 0.996212 -33.17 0.996212 -33.17 0.086559 -125.0
4.13400000 0.086758 -121.4 0.996196 -33.19 0.996196 -33.19 0.086741 -125.0
4.13500000 0.086941 -121.4 0.996180 -33.21 0.996180 -33.21 0.086924 -125.0
4.13600000 0.087125 -121.4 0.996163 -33.22 0.996163 -33.22 0.087108 -125.0
4.13700000 0.087308 -121.5 0.996147 -33.24 0.996147 -33.24 0.087291 -125.1
4.13800000 0.087493 -121.5 0.996131 -33.26 0.996131 -33.26 0.087475 -125.1
4.13900000 0.087677 -121.5 0.996114 -33.28 0.996114 -33.28 0.087660 -125.1
4.14000000 0.087862 -121.5 0.996097 -33.29 0.996097 -33.29 0.087845 -125.1
4.14100000 0.088047 -121.5 0.996081 -33.31 0.996081 -33.31 0.088030 -125.1
4.14200000 0.088233 -121.6 0.996064 -33.33 0.996064 -33.33 0.088215 -125.1
4.14300000 0.088419 -121.6 0.996047 -33.34 0.996047 -33.34 0.088401 -125.2
4.14400000 0.088605 -121.6 0.996031 -33.36 0.996031 -33.36 0.088587 -125.2
4.14500000 0.088792 -121.6 0.996014 -33.38 0.996014 -33.38 0.088774 -125.2
4.14600000 0.088979 -121.6 0.995997 -33.40 0.995997 -33.40 0.088961 -125.2
4.14700000 0.089166 -121.6 0.995980 -33.41 0.995980 -33.41 0.089148 -125.2
4.14800000 0.089354 -121.7 0.995963 -33.43 0.995963 -33.43 0.089336 -125.2
4.14900000 0.089542 -121.7 0.995945 -33.45 0.995945 -33.45 0.089524 -125.3
4.15000000 0.089731 -121.7 0.995928 -33.47 0.995928 -33.47 0.089712 -125.3
4.15100000 0.089919 -121.7 0.995911 -33.48 0.995911 -33.48 0.089901 -125.3
4.15200000 0.090109 -121.7 0.995893 -33.50 0.995893 -33.50 0.090090 -125.3
4.15300000 0.090298 -121.8 0.995876 -33.52 0.995876 -33.52 0.090280 -125.3
4.15400000 0.090488 -121.8 0.995858 -33.54 0.995858 -33.54 0.090469 -125.3
4.15500000 0.090679 -121.8 0.995841 -33.55 0.995841 -33.55 0.090660 -125.4
4.15600000 0.090869 -121.8 0.995823 -33.57 0.995823 -33.57 0.090850 -125.4
4.15700000 0.091060 -121.8 0.995805 -33.59 0.995805 -33.59 0.091041 -125.4
4.15800000 0.091252 -121.8 0.995788 -33.61 0.995788 -33.61 0.091233 -125.4
4.15900000 0.091444 -121.9 0.995770 -33.62 0.995770 -33.62 0.091424 -125.4
4.16000000 0.091636 -121.9 0.995752 -33.64 0.995752 -33.64 0.091616 -125.5
4.16100000 0.091828 -121.9 0.995734 -33.66 0.995734 -33.66 0.091809 -125.5
4.16200000 0.092021 -121.9 0.995716 -33.68 0.995716 -33.68 0.092002 -125.5
4.16300000 0.092215 -121.9 0.995698 -33.69 0.995698 -33.69 0.092195 -125.5
4.16400000 0.092408 -122.0 0.995679 -33.71 0.995679 -33.71 0.092388 -125.5
4.16500000 0.092602 -122.0 0.995661 -33.73 0.995661 -33.73 0.092582 -125.5
4.16600000 0.092797 -122.0 0.995643 -33.75 0.995643 -33.75 0.092777 -125.6
4.16700000 0.092992 -122.0 0.995624 -33.77 0.995624 -33.77 0.092972 -125.6
4.16800000 0.093187 -122.0 0.995606 -33.78 0.995606 -33.78 0.093167 -125.6
4.16900000 0.093382 -122.0 0.995587 -33.80 0.995587 -33.80 0.093362 -125.6
4.17000000 0.093578 -122.1 0.995568 -33.82 0.995568 -33.82 0.093558 -125.6
4.17100000 0.093775 -122.1 0.995550 -33.84 0.995550 -33.84 0.093754 -125.6
4.17200000 0.093971 -122.1 0.995531 -33.86 0.995531 -33.86 0.093951 -125.7
4.17300000 0.094169 -122.1 0.995512 -33.87 0.995512 -33.87 0.094148 -125.7
4.17400000 0.094366 -122.1 0.995493 -33.89 0.995493 -33.89 0.094345 -125.7
4.17500000 0.094564 -122.2 0.995474 -33.91 0.995474 -33.91 0.094543 -125.7
4.17600000 0.094762 -122.2 0.995455 -33.93 0.995455 -33.93 0.094741 -125.7
4.17700000 0.094961 -122.2 0.995435 -33.95 0.995435 -33.95 0.094940 -125.7
4.17800000 0.095160 -122.2 0.995416 -33.96 0.995416 -33.96 0.095139 -125.8
4.17900000 0.095359 -122.2 0.995397 -33.98 0.995397 -33.98 0.095338 -125.8
4.18000000 0.095559 -122.3 0.995377 -34.00 0.995377 -34.00 0.095538 -125.8
4.18100000 0.095760 -122.3 0.995358 -34.02 0.995358 -34.02 0.095738 -125.8
4.18200000 0.095960 -122.3 0.995338 -34.04 0.995338 -34.04 0.095939 -125.8
4.18300000 0.096161 -122.3 0.995318 -34.05 0.995318 -34.05 0.096140 -125.9
4.18400000 0.096363 -122.3 0.995299 -34.07 0.995299 -34.07 0.096341 -125.9
4.18500000 0.096564 -122.3 0.995279 -34.09 0.995279 -34.09 0.096543 -125.9
4.18600000 0.096767 -122.4 0.995259 -34.11 0.995259 -34.11 0.096745 -125.9
4.18700000 0.096969 -122.4 0.995239 -34.13 0.995239 -34.13 0.096947 -125.9
4.18800000 0.097172 -122.4 0.995219 -34.15 0.995219 -34.15 0.097150 -125.9
4.18900000 0.097376 -122.4 0.995199 -34.16 0.995199 -34.16 0.097354 -126.0
4.19000000 0.097580 -122.4 0.995178 -34.18 0.995178 -34.18 0.097557 -126.0
4.19100000 0.097784 -122.5 0.995158 -34.20 0.995158 -34.20 0.097762 -126.0
4.19200000 0.097988 -122.5 0.995138 -34.22 0.995138 -34.22 0.097966 -126.0
4.19300000 0.098194 -122.5 0.995117 -34.24 0.995117 -34.24 0.098171 -126.0
4.19400000 0.098399 -122.5 0.995096 -34.26 0.995096 -34.26 0.098377 -126.1
4.19500000 0.098605 -122.5 0.995076 -34.27 0.995076 -34.27 0.098582 -126.1
4.19600000 0.098811 -122.6 0.995055 -34.29 0.995055 -34.29 0.098788 -126.1
4.19700000 0.099018 -122.6 0.995034 -34.31 0.995034 -34.31 0.098995 -126.1
4.19800000 0.099225 -122.6 0.995013 -34.33 0.995013 -34.33 0.099202 -126.1
4.19900000 0.099432 -122.6 0.994992 -34.35 0.994992 -34.35 0.099409 -126.1
4.20000000 0.099640 -122.6 0.994971 -34.37 0.994971 -34.37 0.099617 -126.2
4.20100000 0.099849 -122.7 0.994950 -34.38 0.994950 -34.38 0.099826 -126.2
4.20200000 0.100057 -122.7 0.994929 -34.40 0.994929 -34.40 0.100034 -126.2
4.20300000 0.100266 -122.7 0.994907 -34.42 0.994907 -34.42 0.100243 -126.2
4.20400000 0.100476 -122.7 0.994886 -34.44 0.994886 -34.44 0.100453 -126.2
4.20500000 0.100686 -122.7 0.994864 -34.46 0.994864 -34.46 0.100663 -126.3
4.20600000 0.100896 -122.7 0.994843 -34.48 0.994843 -34.48 0.100873 -126.3
4.20700000 0.101107 -122.8 0.994821 -34.50 0.994821 -34.50 0.101084 -126.3
4.20800000 0.101318 -122.8 0.994799 -34.52 0.994799 -34.52 0.101295 -126.3
4.20900000 0.101530 -122.8 0.994777 -34.53 0.994777 -34.53 0.101506 -126.3
4.21000000 0.101742 -122.8 0.994755 -34.55 0.994755 -34.55 0.101718 -126.3
4.21100000 0.101955 -122.8 0.994733 -34.57 0.994733 -34.57 0.101931 -126.4
4.21200000 0.102168 -122.9 0.994711 -34.59 0.994711 -34.59 0.102144 -126.4
4.21300000 0.102381 -122.9 0.994689 -34.61 0.994689 -34.61 0.102357 -126.4
4.21400000 0.102595 -122.9 0.994667 -34.63 0.994667 -34.63 0.102571 -126.4
4.21500000 0.102809 -122.9 0.994644 -34.65 0.994644 -34.65 0.102785 -126.4
4.21600000 0.103024 -122.9 0.994622 -34.67 0.994622 -34.67 0.102999 -126.5
4.21700000 0.103239 -123.0 0.994599 -34.69 0.994599 -34.69 0.103215 -126.5
4.21800000 0.103454 -123.0 0.994576 -34.70 0.994576 -34.70 0.103430 -126.5
4.21900000 0.103670 -123.0 0.994554 -34.72 0.994554 -34.72 0.103646 -126.5
4.22000000 0.103887 -123.0 0.994531 -34.74 0.994531 -34.74 0.103862 -126.5
4.22100000 0.104104 -123.0 0.994508 -34.76 0.994508 -34.76 0.104079 -126.5
4.22200000 0.104321 -123.1 0.994485 -34.78 0.994485 -34.78 0.104296 -126.6
4.22300000 0.104538 -123.1 0.994461 -34.80 0.994461 -34.80 0.104514 -126.6
4.22400000 0.104757 -123.1 0.994438 -34.82 0.994438 -34.82 0.104732 -126.6
4.22500000 0.104975 -123.1 0.994415 -34.84 0.994415 -34.84 0.104950 -126.6
4.22600000 0.105194 -123.1 0.994391 -34.86 0.994391 -34.86 0.105169 -126.6
4.22700000 0.105414 -123.2 0.994368 -34.88 0.994368 -34.88 0.105389 -126.7
4.22800000 0.105634 -123.2 0.994344 -34.90 0.994344 -34.90 0.105608 -126.7
4.22900000 0.105854 -123.2 0.994320 -34.92 0.994320 -34.92 0.105829 -126.7
4.23000000 0.106075 -123.2 0.994297 -34.93 0.994297 -34.93 0.106049 -126.7
4.23100000 0.106296 -123.2 0.994273 -34.95 0.994273 -34.95 0.106271 -126.7
4.23200000 0.106518 -123.3 0.994249 -34.97 0.994249 -34.97 0.106492 -126.8
4.23300000 0.106740 -123.3 0.994224 -34.99 0.994224 -34.99 0.106714 -126.8
4.23400000 0.106962 -123.3 0.994200 -35.01 0.994200 -35.01 0.106937 -126.8
4.23500000 0.107185 -123.3 0.994176 -35.03 0.994176 -35.03 0.107160 -126.8
4.23600000 0.107409 -123.3 0.994151 -35.05 0.994151 -35.05 0.107383 -126.8
4.23700000 0.107633 -123.4 0.994127 -35.07 0.994127 -35.07 0.107607 -126.8
4.23800000 0.107857 -123.4 0.994102 -35.09 0.994102 -35.09 0.107831 -126.9
4.23900000 0.108082 -123.4 0.994077 -35.11 0.994077 -35.11 0.108056 -126.9
4.24000000 0.108307 -123.4 0.994053 -35.13 0.994053 -35.13 0.108281 -126.9
4.24100000 0.108533 -123.4 0.994028 -35.15 0.994028 -35.15 0.108507 -126.9
4.24200000 0.108759 -123.5 0.994003 -35.17 0.994003 -35.17 0.108733 -126.9
4.24300000 0.108986 -123.5 0.993977 -35.19 0.993977 -35.19 0.108960 -127.0
4.24400000 0.109213 -123.5 0.993952 -35.21 0.993952 -35.21 0.109187 -127.0
4.24500000 0.109441 -123.5 0.993927 -35.23 0.993927 -35.23 0.109414 -127.0
4.24600000 0.109669 -123.5 0.993901 -35.25 0.993901 -35.25 0.109642 -127.0
4.24700000 0.109897 -123.6 0.993876 -35.27 0.993876 -35.27 0.109871 -127.0
4.24800000 0.110126 -123.6 0.993850 -35.29 0.993850 -35.29 0.110100 -127.1
4.24900000 0.110356 -123.6 0.993824 -35.31 0.993824 -35.31 0.110329 -127.1
4.25000000 0.110586 -123.6 0.993799 -35.33 0.993799 -35.33 0.110559 -127.1
4.25100000 0.110816 -123.6 0.993773 -35.35 0.993773 -35.35 0.110789 -127.1
4.25200000 0.111047 -123.7 0.993746 -35.37 0.993746 -35.37 0.111020 -127.1
4.25300000 0.111279 -123.7 0.993720 -35.39 0.993720 -35.39 0.111252 -127.2
4.25400000 0.111510 -123.7 0.993694 -35.41 0.993694 -35.41 0.111483 -127.2
4.25500000 0.111743 -123.7 0.993667 -35.43 0.993667 -35.43 0.111716 -127.2
4.25600000 0.111975 -123.7 0.993641 -35.45 0.993641 -35.45 0.111948 -127.2
4.25700000 0.112209 -123.8 0.993614 -35.47 0.993614 -35.47 0.112181 -127.2
4.25800000 0.112442 -123.8 0.993588 -35.49 0.993588 -35.49 0.112415 -127.3
4.25900000 0.112677 -123.8 0.993561 -35.51 0.993561 -35.51 0.112649 -127.3
4.26000000 0.112911 -123.8 0.993534 -35.53 0.993534 -35.53 0.112884 -127.3
4.26100000 0.113147 -123.8 0.993507 -35.55 0.993507 -35.55 0.113119 -127.3
4.26200000 0.113382 -123.9 0.993479 -35.57 0.993479 -35.57 0.113355 -127.3
4.26300000 0.113618 -123.9 0.993452 -35.59 0.993452 -35.59 0.113591 -127.4
4.26400000 0.113855 -123.9 0.993425 -35.61 0.993425 -35.61 0.113827 -127.4
4.26500000 0.114092 -123.9 0.993397 -35.63 0.993397 -35.63 0.114064 -127.4
4.26600000 0.114330 -124.0 0.993369 -35.65 0.993369 -35.65 0.114302 -127.4
4.26700000 0.114568 -124.0 0.993342 -35.67 0.993342 -35.67 0.114540 -127.4
4.26800000 0.114807 -124.0 0.993314 -35.69 0.993314 -35.69 0.114779 -127.5
4.26900000 0.115046 -124.0 0.993286 -35.71 0.993286 -35.71 0.115018 -127.5
4.27000000 0.115285 -124.0 0.993258 -35.73 0.993258 -35.73 0.115257 -127.5
4.27100000 0.115525 -124.1 0.993229 -35.75 0.993229 -35.75 0.115497 -127.5
4.27200000 0.115766 -124.1 0.993201 -35.77 0.993201 -35.77 0.115738 -127.5
4.27300000 0.116007 -124.1 0.993173 -35.79 0.993173 -35.79 0.115979 -127.6
4.27400000 0.116249 -124.1 0.993144 -35.81 0.993144 -35.81 0.116220 -127.6
4.27500000 0.116491 -124.1 0.993115 -35.83 0.993115 -35.83 0.116462 -127.6
4.27600000 0.116733 -124.2 0.993087 -35.85 0.993087 -35.85 0.116705 -127.6
4.27700000 0.116977 -124.2 0.993058 -35.87 0.993058 -35.87 0.116948 -127.6
4.27800000 0.117220 -124.2 0.993029 -35.89 0.993029 -35.89 0.117191 -127.7
4.27900000 0.117464 -124.2 0.992999 -35.91 0.992999 -35.91 0.117436 -127.7
4.28000000 0.117709 -124.2 0.992970 -35.94 0.992970 -35.94 0.117680 -127.7
4.28100000 0.117954 -124.3 0.992941 -35.96 0.992941 -35.96 0.117925 -127.7
4.28200000 0.118200 -124.3 0.992911 -35.98 0.992911 -35.98 0.118171 -127.7
4.28300000 0.118446 -124.3 0.992881 -36.00 0.992881 -36.00 0.118417 -127.8
4.28400000 0.118692 -124.3 0.992852 -36.02 0.992852 -36.02 0.118663 -127.8
4.28500000 0.118940 -124.4 0.992822 -36.04 0.992822 -36.04 0.118911 -127.8
4.28600000 0.119187 -124.4 0.992792 -36.06 0.992792 -36.06 0.119158 -127.8
4.28700000 0.119436 -124.4 0.992761 -36.08 0.992761 -36.08 0.119406 -127.8
4.28800000 0.119684 -124.4 0.992731 -36.10 0.992731 -36.10 0.119655 -127.9
4.28900000 0.119934 -124.4 0.992701 -36.12 0.992701 -36.12 0.119904 -127.9
4.29000000 0.120183 -124.5 0.992670 -36.14 0.992670 -36.14 0.120154 -127.9
4.29100000 0.120434 -124.5 0.992640 -36.16 0.992640 -36.16 0.120404 -127.9
4.29200000 0.120685 -124.5 0.992609 -36.19 0.992609 -36.19 0.120655 -127.9
4.29300000 0.120936 -124.5 0.992578 -36.21 0.992578 -36.21 0.120906 -128.0
4.29400000 0.121188 -124.5 0.992547 -36.23 0.992547 -36.23 0.121158 -128.0
4.29500000 0.121440 -124.6 0.992515 -36.25 0.992515 -36.25 0.121411 -128.0
4.29600000 0.121693 -124.6 0.992484 -36.27 0.992484 -36.27 0.121663 -128.0
4.29700000 0.121947 -124.6 0.992453 -36.29 0.992453 -36.29 0.121917 -128.0
4.29800000 0.122201 -124.6 0.992421 -36.31 0.992421 -36.31 0.122171 -128.1
4.29900000 0.122455 -124.7 0.992389 -36.33 0.992389 -36.33 0.122425 -128.1
4.30000000 0.122710 -124.7 0.992358 -36.36 0.992358 -36.36 0.122680 -128.1
4.30100000 0.122966 -124.7 0.992326 -36.38 0.992326 -36.38 0.122936 -128.1
4.30200000 0.123222 -124.7 0.992293 -36.40 0.992293 -36.40 0.123192 -128.2
4.30300000 0.123479 -124.7 0.992261 -36.42 0.992261 -36.42 0.123449 -128.2
4.30400000 0.123736 -124.8 0.992229 -36.44 0.992229 -36.44 0.123706 -128.2
4.30500000 0.123994 -124.8 0.992196 -36.46 0.992196 -36.46 0.123964 -128.2
4.30600000 0.124252 -124.8 0.992164 -36.48 0.992164 -36.48 0.124222 -128.2
4.30700000 0.124511 -124.8 0.992131 -36.51 0.992131 -36.51 0.124481 -128.3
4.30800000 0.124770 -124.9 0.992098 -36.53 0.992098 -36.53 0.124740 -128.3
4.30900000 0.125030 -124.9 0.992065 -36.55 0.992065 -36.55 0.125000 -128.3
4.31000000 0.125291 -124.9 0.992032 -36.57 0.992032 -36.57 0.125260 -128.3
4.31100000 0.125552 -124.9 0.991998 -36.59 0.991998 -36.59 0.125521 -128.3
4.31200000 0.125814 -124.9 0.991965 -36.61 0.991965 -36.61 0.125783 -128.4
4.31300000 0.126076 -125.0 0.991931 -36.64 0.991931 -36.64 0.126045 -128.4
4.31400000 0.126339 -125.0 0.991897 -36.66 0.991897 -36.66 0.126308 -128.4
4.31500000 0.126602 -125.0 0.991863 -36.68 0.991863 -36.68 0.126571 -128.4
4.31600000 0.126866 -125.0 0.991829 -36.70 0.991829 -36.70 0.126835 -128.5
4.31700000 0.127130 -125.1 0.991795 -36.72 0.991795 -36.72 0.127099 -128.5
4.31800000 0.127395 -125.1 0.991761 -36.74 0.991761 -36.74 0.127364 -128.5
4.31900000 0.127661 -125.1 0.991726 -36.77 0.991726 -36.77 0.127630 -128.5
4.32000000 0.127927 -125.1 0.991691 -36.79 0.991691 -36.79 0.127896 -128.5
4.32100000 0.128194 -125.1 0.991657 -36.81 0.991657 -36.81 0.128163 -128.6
4.32200000 0.128461 -125.2 0.991622 -36.83 0.991622 -36.83 0.128430 -128.6
4.32300000 0.128729 -125.2 0.991587 -36.85 0.991587 -36.85 0.128698 -128.6
4.32400000 0.128997 -125.2 0.991551 -36.88 0.991551 -36.88 0.128966 -128.6
4.32500000 0.129266 -125.2 0.991516 -36.90 0.991516 -36.90 0.129235 -128.6
4.32600000 0.129536 -125.3 0.991480 -36.92 0.991480 -36.92 0.129504 -128.7
4.32700000 0.129806 -125.3 0.991445 -36.94 0.991445 -36.94 0.129774 -128.7
4.32800000 0.130077 -125.3 0.991409 -36.97 0.991409 -36.97 0.130045 -128.7
4.32900000 0.130348 -125.3 0.991373 -36.99 0.991373 -36.99 0.130316 -128.7
4.33000000 0.130620 -125.3 0.991337 -37.01 0.991337 -37.01 0.130588 -128.8
4.33100000 0.130892 -125.4 0.991300 -37.03 0.991300 -37.03 0.130861 -128.8
4.33200000 0.131165 -125.4 0.991264 -37.05 0.991264 -37.05 0.131134 -128.8
4.33300000 0.131439 -125.4 0.991227 -37.08 0.991227 -37.08 0.131407 -128.8
4.33400000 0.131713 -125.4 0.991191 -37.10 0.991191 -37.10 0.131681 -128.8
4.33500000 0.131988 -125.5 0.991154 -37.12 0.991154 -37.12 0.131956 -128.9
4.33600000 0.132263 -125.5 0.991117 -37.14 0.991117 -37.14 0.132232 -128.9
4.33700000 0.132539 -125.5 0.991079 -37.17 0.991079 -37.17 0.132508 -128.9
4.33800000 0.132816 -125.5 0.991042 -37.19 0.991042 -37.19 0.132784 -128.9
4.33900000 0.133093 -125.6 0.991004 -37.21 0.991004 -37.21 0.133061 -129.0
4.34000000 0.133371 -125.6 0.990967 -37.23 0.990967 -37.23 0.133339 -129.0
4.34100000 0.133649 -125.6 0.990929 -37.26 0.990929 -37.26 0.133617 -129.0
4.34200000 0.133928 -125.6 0.990891 -37.28 0.990891 -37.28 0.133896 -129.0
4.34300000 0.134208 -125.6 0.990853 -37.30 0.990853 -37.30 0.134176 -129.0
4.34400000 0.134488 -125.7 0.990814 -37.33 0.990814 -37.33 0.134456 -129.1
4.34500000 0.134769 -125.7 0.990776 -37.35 0.990776 -37.35 0.134737 -129.1
4.34600000 0.135050 -125.7 0.990737 -37.37 0.990737 -37.37 0.135018 -129.1
4.34700000 0.135333 -125.7 0.990698 -37.39 0.990698 -37.39 0.135300 -129.1
4.34800000 0.135615 -125.8 0.990659 -37.42 0.990659 -37.42 0.135583 -129.2
4.34900000 0.135898 -125.8 0.990620 -37.44 0.990620 -37.44 0.135866 -129.2
4.35000000 0.136182 -125.8 0.990581 -37.46 0.990581 -37.46 0.136150 -129.2
4.35100000 0.136467 -125.8 0.990541 -37.49 0.990541 -37.49 0.136434 -129.2
4.35200000 0.136752 -125.9 0.990501 -37.51 0.990501 -37.51 0.136720 -129.3
4.35300000 0.137038 -125.9 0.990462 -37.53 0.990462 -37.53 0.137005 -129.3
4.35400000 0.137324 -125.9 0.990422 -37.56 0.990422 -37.56 0.137292 -129.3
4.35500000 0.137611 -125.9 0.990381 -37.58 0.990381 -37.58 0.137579 -129.3
4.35600000 0.137899 -125.9 0.990341 -37.60 0.990341 -37.60 0.137866 -129.3
4.35700000 0.138187 -126.0 0.990300 -37.63 0.990300 -37.63 0.138154 -129.4
4.35800000 0.138476 -126.0 0.990260 -37.65 0.990260 -37.65 0.138443 -129.4
4.35900000 0.138765 -126.0 0.990219 -37.67 0.990219 -37.67 0.138733 -129.4
4.36000000 0.139056 -126.0 0.990178 -37.70 0.990178 -37.70 0.139023 -129.4
4.36100000 0.139346 -126.1 0.990136 -37.72 0.990136 -37.72 0.139313 -129.5
4.36200000 0.139638 -126.1 0.990095 -37.74 0.990095 -37.74 0.139605 -129.5
4.36300000 0.139930 -126.1 0.990053 -37.77 0.990053 -37.77 0.139897 -129.5
4.36400000 0.140223 -126.1 0.990012 -37.79 0.990012 -37.79 0.140190 -129.5
4.36500000 0.140516 -126.2 0.989970 -37.81 0.989970 -37.81 0.140483 -129.6
4.36600000 0.140810 -126.2 0.989927 -37.84 0.989927 -37.84 0.140777 -129.6
4.36700000 0.141105 -126.2 0.989885 -37.86 0.989885 -37.86 0.141071 -129.6
4.36800000 0.141400 -126.2 0.989843 -37.88 0.989843 -37.88 0.141367 -129.6
4.36900000 0.141696 -126.3 0.989800 -37.91 0.989800 -37.91 0.141663 -129.6
4.37000000 0.141992 -126.3 0.989757 -37.93 0.989757 -37.93 0.141959 -129.7
4.37100000 0.142290 -126.3 0.989714 -37.95 0.989714 -37.95 0.142256 -129.7
4.37200000 0.142588 -126.3 0.989671 -37.98 0.989671 -37.98 0.142554 -129.7
4.37300000 0.142886 -126.4 0.989627 -38.00 0.989627 -38.00 0.142853 -129.7
4.37400000 0.143185 -126.4 0.989584 -38.03 0.989584 -38.03 0.143152 -129.8
4.37500000 0.143485 -126.4 0.989540 -38.05 0.989540 -38.05 0.143452 -129.8
4.37600000 0.143786 -126.4 0.989496 -38.07 0.989496 -38.07 0.143752 -129.8
4.37700000 0.144087 -126.5 0.989452 -38.10 0.989452 -38.10 0.144054 -129.8
4.37800000 0.144389 -126.5 0.989407 -38.12 0.989407 -38.12 0.144355 -129.9
4.37900000 0.144691 -126.5 0.989363 -38.15 0.989363 -38.15 0.144658 -129.9
4.38000000 0.144995 -126.5 0.989318 -38.17 0.989318 -38.17 0.144961 -129.9
4.38100000 0.145299 -126.6 0.989273 -38.19 0.989273 -38.19 0.145265 -129.9
4.38200000 0.145603 -126.6 0.989228 -38.22 0.989228 -38.22 0.145569 -130.0
4.38300000 0.145908 -126.6 0.989182 -38.24 0.989182 -38.24 0.145875 -130.0
4.38400000 0.146214 -126.6 0.989137 -38.27 0.989137 -38.27 0.146181 -130.0
4.38500000 0.146521 -126.6 0.989091 -38.29 0.989091 -38.29 0.146487 -130.0
4.38600000 0.146828 -126.7 0.989045 -38.32 0.989045 -38.32 0.146794 -130.0
4.38700000 0.147136 -126.7 0.988999 -38.34 0.988999 -38.34 0.147102 -130.1
4.38800000 0.147445 -126.7 0.988953 -38.36 0.988953 -38.36 0.147411 -130.1
4.38900000 0.147754 -126.7 0.988906 -38.39 0.988906 -38.39 0.147720 -130.1
4.39000000 0.148064 -126.8 0.988859 -38.41 0.988859 -38.41 0.148030 -130.1
4.39100000 0.148375 -126.8 0.988812 -38.44 0.988812 -38.44 0.148341 -130.2
4.39200000 0.148687 -126.8 0.988765 -38.46 0.988765 -38.46 0.148653 -130.2